      -----------------------------------------------------------      
     |                   =====================                   |     
     |                           x T B                           |     
     |                   =====================                   |     
     |                         S. Grimme                         |     
     |          Mulliken Center for Theoretical Chemistry        |     
     |                    University of Bonn                     |     
      -----------------------------------------------------------      

   * xtb version 6.7.0 (08769fc) compiled by 'Marce@TuxPulse' on 2024-03-04

   xtb is free software: you can redistribute it and/or modify it under
   the terms of the GNU Lesser General Public License as published by
   the Free Software Foundation, either version 3 of the License, or
   (at your option) any later version.
   
   xtb is distributed in the hope that it will be useful,
   but WITHOUT ANY WARRANTY; without even the implied warranty of
   MERCHANTABILITY or FITNESS FOR A PARTICULAR PURPOSE.  See the
   GNU Lesser General Public License for more details.
   
   Cite this work as:
   * C. Bannwarth, E. Caldeweyher, S. Ehlert, A. Hansen, P. Pracht,
     J. Seibert, S. Spicher, S. Grimme, WIREs Comput. Mol. Sci., 2020, 11,
     e01493. DOI: 10.1002/wcms.1493
   
   for GFN2-xTB:
   * C. Bannwarth, S. Ehlert and S. Grimme., J. Chem. Theory Comput., 2019,
     15, 1652-1671. DOI: 10.1021/acs.jctc.8b01176
   for GFN1-xTB:
   * S. Grimme, C. Bannwarth, P. Shushkov, J. Chem. Theory Comput., 2017,
     13, 1989-2009. DOI: 10.1021/acs.jctc.7b00118
   for GFN0-xTB:
   * P. Pracht, E. Caldeweyher, S. Ehlert, S. Grimme, ChemRxiv, 2019, preprint.
     DOI: 10.26434/chemrxiv.8326202.v1
   for GFN-FF:
   * S. Spicher and S. Grimme, Angew. Chem. Int. Ed., 2020, 59, 15665-15673.
     DOI: 10.1002/anie.202004239
   
   for ALPB and GBSA implicit solvation:
   * S. Ehlert, M. Stahn, S. Spicher, S. Grimme, J. Chem. Theory Comput.,
     2021, 17, 4250-4261. DOI: 10.1021/acs.jctc.1c00471
   
   for ddCOSMO and CPCM-X implicit solvation:
   * M. Stahn, S. Ehlert, S. Grimme, J. Phys. Chem. A,
     2023, XX, XXXX-XXXX. DOI: 10.1021/acs.jpca.3c04382
   
   for DFT-D4:
   * E. Caldeweyher, C. Bannwarth and S. Grimme, J. Chem. Phys., 2017,
     147, 034112. DOI: 10.1063/1.4993215
   * E. Caldeweyher, S. Ehlert, A. Hansen, H. Neugebauer, S. Spicher,
     C. Bannwarth and S. Grimme, J. Chem. Phys., 2019, 150, 154122.
     DOI: 10.1063/1.5090222
   * E. Caldeweyher, J.-M. Mewes, S. Ehlert and S. Grimme, Phys. Chem. Chem. Phys.
     2020, 22, 8499-8512. DOI: 10.1039/D0CP00502A
   
   for sTDA-xTB:
   * S. Grimme and C. Bannwarth, J. Chem. Phys., 2016, 145, 054103.
     DOI: 10.1063/1.4959605
   
   in the mass-spec context:
   * V. Asgeirsson, C. Bauer and S. Grimme, Chem. Sci., 2017, 8, 4879.
     DOI: 10.1039/c7sc00601b
   * J. Koopman and S. Grimme, ACS Omega 2019, 4, 12, 15120-15133.
     DOI: 10.1021/acsomega.9b02011
   
   for metadynamics refer to:
   * S. Grimme, J. Chem. Theory Comput., 2019, 155, 2847-2862
     DOI: 10.1021/acs.jctc.9b00143
   
   for SPH calculations refer to:
   * S. Spicher and S. Grimme, J. Chem. Theory Comput., 2021, 17, 1701-1714
     DOI: 10.1021/acs.jctc.0c01306
   
   for ONIOM refer to:
   * C. Plett, A. Katbashev, S. Ehlert, S. Grimme, M. Bursch,
     Phys. Chem. Chem. Phys., 2023, 25, 17860-17868. DOI: 10.1039/D3CP02178E
   
   for DIPRO refer to:
   * J. Kohn, N. Gildemeister, S. Grimme, D. Fazzi, A. Hansen,
     J. Chem. Phys., 2023, just accepted.
   
   for PTB refer to:
   * S. Grimme, M. Mueller, A. Hansen, J. Chem. Phys., 2023, 158, 124111.
     DOI: 10.1063/5.0137838
   
   with help from (in alphabetical order)
   P. Atkinson, C. Bannwarth, F. Bohle, G. Brandenburg, E. Caldeweyher
   M. Checinski, S. Dohm, S. Ehlert, S. Ehrlich, I. Gerasimov, C. Hölzer
   A. Katbashev, J. Kohn, J. Koopman, C. Lavigne, S. Lehtola, F. März, M. Müller,
   F. Musil, H. Neugebauer, J. Pisarek, C. Plett, P. Pracht, F. Pultar,
   J. Seibert, P. Shushkov, S. Spicher, M. Stahn, M. Steiner, T. Strunk,
   J. Stückrath, T. Rose, and J. Unsleber
   
 * started run on 2026/04/03 at 20:55:05.831     
   ID    Z sym.   atoms
    1   15 P      1, 2
    2    6 C      3, 4, 9, 10, 17, 18, 21-26, 32-37, 43-48, 54-59, 65
    3    1 H      5-8, 11-14, 27-31, 38-42, 49-53, 60-64, 67-70
    4    7 N      15
    5   25 Mn     16
    6    8 O      19, 20, 66

           -------------------------------------------------
          |                Calculation Setup                |
           -------------------------------------------------

          program call               : "d:\Nitish\automation\Saurbh_auto\master_orca_code _my_code\orca_code\xtb\xtb\xtb.exe"  "C:\Users\Admin\AppData\Local\Temp\xtb_run_isr0us__\input.xyz" --opt normal --chrg 0 --uhf 0 --gfn 2 --input xcontrol.inp 
          coordinate file            : C:\Users\Admin\AppData\Local\Temp\xtb_run_isr0us__\input.xyz
          omp threads                :                    12


molecular fragmentation (1/2 indicates fragments):
1111111111111111111111111111111111111111111111111111111111111111222222
# atoms in fragment 1/2:    64     6
 fragment masses (1/2) :      551.44       32.04
CMA distance (Bohr)    :   6.134
constraining FC (au)   :  0.0500
########################################################################
[ERROR] Please study the warnings concerning your input carefully
-3- userdata_rdblock: handler could not process input
-2- userdata_scan: Constraint '1' is not defined
-1- set_scan: the key '1: distance(70, 65)' is not recognized by scan
########################################################################

           -------------------------------------------------
          |                 G F N 2 - x T B                 |
           -------------------------------------------------

        Reference                      10.1021/acs.jctc.8b01176
      * Hamiltonian:
        H0-scaling (s, p, d)           1.850000    2.230000    2.230000
        zeta-weighting                 0.500000
      * Dispersion:
        s8                             2.700000
        a1                             0.520000
        a2                             5.000000
        s9                             5.000000
      * Repulsion:
        kExp                           1.500000    1.000000
        rExp                           1.000000
      * Coulomb:
        alpha                          2.000000
        third order                    shell-resolved
        anisotropic                    true
        a3                             3.000000
        a5                             4.000000
        cn-shift                       1.200000
        cn-exp                         4.000000
        max-rad                        5.000000


          ...................................................
          :                      SETUP                      :
          :.................................................:
          :  # basis functions                 202          :
          :  # atomic orbitals                 199          :
          :  # shells                          111          :
          :  # electrons                       196          :
          :  max. iterations                   250          :
          :  Hamiltonian                  GFN2-xTB          :
          :  restarted?                      false          :
          :  GBSA solvation                  false          :
          :  PC potential                    false          :
          :  electronic temp.          300.0000000     K    :
          :  accuracy                    1.0000000          :
          :  -> integral cutoff          0.2500000E+02      :
          :  -> integral neglect         0.1000000E-07      :
          :  -> SCF convergence          0.1000000E-05 Eh   :
          :  -> wf. convergence          0.1000000E-03 e    :
          :  Broyden damping             0.4000000          :
          :  net charge                          0          :
          :  unpaired electrons                  0          :
          ...................................................

 iter      E             dE          RMSdq      gap      omega  full diag
   1   -106.4745020 -0.106475E+03  0.664E+00    1.92       0.0  T
   2   -105.7320193  0.742483E+00  0.589E+00    0.46       1.0  T
   3   -107.0166537 -0.128463E+01  0.314E+00    1.98       1.0  T
   4   -107.1840718 -0.167418E+00  0.107E+00    1.83       1.0  T
   5   -107.1909045 -0.683276E-02  0.562E-01    1.75       1.0  T
   6   -107.1950728 -0.416831E-02  0.286E-01    1.83       1.0  T
   7   -107.1938700  0.120282E-02  0.232E-01    1.81       1.0  T
   8   -107.1963111 -0.244110E-02  0.125E-01    1.83       1.0  T
   9   -107.1963644 -0.533366E-04  0.803E-02    1.84       1.0  T
  10   -107.1964801 -0.115644E-03  0.310E-02    1.85       1.0  T
  11   -107.1965060 -0.258728E-04  0.178E-02    1.85       1.0  T
  12   -107.1965132 -0.723946E-05  0.764E-03    1.85       1.6  T
  13   -107.1965141 -0.922926E-06  0.448E-03    1.85       2.7  T
  14   -107.1965143 -0.199410E-06  0.349E-03    1.85       3.4  T
  15   -107.1965145 -0.223779E-06  0.127E-03    1.85       9.4  T
  16   -107.1965145 -0.889887E-08  0.691E-04    1.85      17.3  T
  17   -107.1965146 -0.180460E-07  0.293E-04    1.85      40.9  T

   *** convergence criteria satisfied after 17 iterations ***

         #    Occupation            Energy/Eh            Energy/eV
      -------------------------------------------------------------
         1        2.0000           -0.7331509             -19.9501
       ...           ...                  ...                  ...
        92        2.0000           -0.3957350             -10.7685
        93        2.0000           -0.3776801             -10.2772
        94        2.0000           -0.3624604              -9.8630
        95        2.0000           -0.3411270              -9.2825
        96        2.0000           -0.3342238              -9.0947
        97        2.0000           -0.3329710              -9.0606
        98        2.0000           -0.3305420              -8.9945 (HOMO)
        99                         -0.2623989              -7.1402 (LUMO)
       100                         -0.2571539              -6.9975
       101                         -0.2516043              -6.8465
       102                         -0.2480494              -6.7498
       103                         -0.2412066              -6.5636
       ...                                ...                  ...
       199                          2.8906586              78.6588
      -------------------------------------------------------------
                  HL-Gap            0.0681431 Eh            1.8543 eV
             Fermi-level           -0.2964704 Eh           -8.0674 eV

 SCC (total)                   0 d,  0 h,  0 min,  0.165 sec
 SCC setup                      ...        0 min,  0.002 sec (  1.212%)
 Dispersion                     ...        0 min,  0.000 sec (  0.000%)
 classical contributions        ...        0 min,  0.000 sec (  0.000%)
 integral evaluation            ...        0 min,  0.011 sec (  6.667%)
 iterations                     ...        0 min,  0.138 sec ( 83.636%)
 molecular gradient             ...        0 min,  0.012 sec (  7.273%)
 printout                       ...        0 min,  0.002 sec (  1.212%)

         :::::::::::::::::::::::::::::::::::::::::::::::::::::
         ::                     SUMMARY                     ::
         :::::::::::::::::::::::::::::::::::::::::::::::::::::
         :: total energy            -105.669529965640 Eh    ::
         :: gradient norm              0.057602896151 Eh/a0 ::
         :: HOMO-LUMO gap              1.854269422117 eV    ::
         ::.................................................::
         :: SCC energy              -107.192939284070 Eh    ::
         :: -> isotropic ES            0.072939715691 Eh    ::
         :: -> anisotropic ES          0.006062995988 Eh    ::
         :: -> anisotropic XC          0.043823034849 Eh    ::
         :: -> dispersion             -0.101316167023 Eh    ::
         :: repulsion energy           1.523409318429 Eh    ::
         :: add. restraining           0.000000000000 Eh    ::
         :: total charge              -0.000000000000 e     ::
         :::::::::::::::::::::::::::::::::::::::::::::::::::::

      ----------------------------------------------------------- 
     |                   =====================                   |
     |                        A N C O P T                        |
     |                   =====================                   |
     |               Approximate Normal Coordinate               |
     |                Rational Function Optimizer                |
      ----------------------------------------------------------- 
      ----------------------------------------------------------- 
     |                   =====================                   |
     |                        A N C O P T                        |
     |                   =====================                   |
     |               Approximate Normal Coordinate               |
     |                Rational Function Optimizer                |
      ----------------------------------------------------------- 

          ...................................................
          :                      SETUP                      :
          :.................................................:
          :   optimization level            normal          :
          :   max. optcycles                   210          :
          :   ANC micro-cycles                  20          :
          :   degrees of freedom               204          :
          :.................................................:
          :   RF solver                   davidson          :
          :   write xtbopt.log                true          :
          :   linear?                        false          :
          :   energy convergence         0.5000000E-05 Eh   :
          :   grad. convergence          0.1000000E-02 Eh/α :
          :   maxmium RF displ.          1.0000000          :
          :   Hlow (freq-cutoff)         0.1000000E-01      :
          :   Hmax (freq-cutoff)         5.0000000          :
          :   S6 in model hess.         20.0000000          :
          ...................................................

generating ANC from model Hessian ...
Using Lindh-Hessian (1995)
 Shifting diagonal of input Hessian by   9.928373840352316E-003
 Lowest  eigenvalues of input Hessian
    0.000000    0.000000    0.000000    0.000000    0.000000    0.000000
    0.010000    0.010053    0.010222    0.010306    0.010410    0.010488
    0.010515    0.010671    0.010732    0.010795    0.010844    0.010952
 Highest eigenvalues
    1.903128    1.906706    1.908893    1.910591    2.382239    2.418370
 

........................................................................
.............................. CYCLE    1 ..............................
........................................................................

 iter      E             dE          RMSdq      gap      omega  full diag
   1   -107.1965146 -0.107197E+03  0.165E-04    1.85       0.0  T
   2   -107.1965146  0.579234E-10  0.141E-04    1.85      84.5  T
   3   -107.1965146 -0.573337E-09  0.102E-04    1.85     116.8  T
     SCC iter.                  ...        0 min,  0.017 sec
     gradient                   ...        0 min,  0.014 sec
 * total energy  :  -105.6695300 Eh     change       -0.1488075E-08 Eh
   gradient norm :     0.0576036 Eh/α   predicted     0.0000000E+00 (-100.00%)
   displ. norm   :     0.3665886 α      lambda       -0.1479866E-01
   maximum displ.:     0.1141634 α      in ANC's #124, #43, #28, ...

........................................................................
.............................. CYCLE    2 ..............................
........................................................................

 iter      E             dE          RMSdq      gap      omega  full diag
   1   -107.2861590 -0.107286E+03  0.194E-01    1.85       0.0  T
   2   -107.2862163 -0.572336E-04  0.118E-01    1.86       1.0  T
   3   -107.2860025  0.213756E-03  0.106E-01    1.84       1.0  T
   4   -107.2862912 -0.288671E-03  0.319E-02    1.86       1.0  T
   5   -107.2863081 -0.169389E-04  0.119E-02    1.85       1.0  T
   6   -107.2863112 -0.308009E-05  0.581E-03    1.85       2.1  T
   7   -107.2863113 -0.348105E-07  0.420E-03    1.85       2.8  T
   8   -107.2863117 -0.437615E-06  0.254E-03    1.85       4.7  T
   9   -107.2863117  0.236592E-07  0.166E-03    1.85       7.2  T
  10   -107.2863118 -0.118750E-06  0.731E-04    1.85      16.3  T
  11   -107.2863118 -0.322242E-08  0.265E-04    1.85      45.1  T
     SCC iter.                  ...        0 min,  0.064 sec
     gradient                   ...        0 min,  0.012 sec
 * total energy  :  -105.6792844 Eh     change       -0.9754455E-02 Eh
   gradient norm :     0.0189527 Eh/α   predicted    -0.8393776E-02 ( -13.95%)
   displ. norm   :     0.3403605 α      lambda       -0.4046512E-02
   maximum displ.:     0.1093722 α      in ANC's #28, #55, #43, ...

........................................................................
.............................. CYCLE    3 ..............................
........................................................................

 iter      E             dE          RMSdq      gap      omega  full diag
   1   -107.3285320 -0.107329E+03  0.124E-01    1.85       0.0  T
   2   -107.3285904 -0.583808E-04  0.799E-02    1.85       1.0  T
   3   -107.3285671  0.232760E-04  0.630E-02    1.85       1.0  T
   4   -107.3286792 -0.112076E-03  0.247E-02    1.85       1.0  T
   5   -107.3286896 -0.104167E-04  0.980E-03    1.85       1.2  T
   6   -107.3286910 -0.146364E-05  0.495E-03    1.85       2.4  T
   7   -107.3286913 -0.258864E-06  0.367E-03    1.85       3.3  T
   8   -107.3286916 -0.276705E-06  0.184E-03    1.85       6.5  T
   9   -107.3286916 -0.246613E-07  0.126E-03    1.85       9.5  T
  10   -107.3286916 -0.299483E-07  0.635E-04    1.85      18.8  T
  11   -107.3286916 -0.631682E-08  0.202E-04    1.85      59.0  T
     SCC iter.                  ...        0 min,  0.065 sec
     gradient                   ...        0 min,  0.011 sec
 * total energy  :  -105.6818034 Eh     change       -0.2519018E-02 Eh
   gradient norm :     0.0129969 Eh/α   predicted    -0.2260968E-02 ( -10.24%)
   displ. norm   :     0.4466870 α      lambda       -0.2897633E-02
   maximum displ.:     0.2407278 α      in ANC's #23, #55, #43, ...

........................................................................
.............................. CYCLE    4 ..............................
........................................................................

 iter      E             dE          RMSdq      gap      omega  full diag
   1   -107.3425061 -0.107343E+03  0.237E-01    1.81       0.0  T
   2   -107.3423293  0.176771E-03  0.179E-01    1.82       1.0  T
   3   -107.3426207 -0.291335E-03  0.131E-01    1.80       1.0  T
   4   -107.3431049 -0.484207E-03  0.390E-02    1.82       1.0  T
   5   -107.3431192 -0.143323E-04  0.214E-02    1.81       1.0  T
   6   -107.3431212 -0.194091E-05  0.151E-02    1.82       1.0  T
   7   -107.3431217 -0.545958E-06  0.124E-02    1.82       1.0  T
   8   -107.3431252 -0.347316E-05  0.622E-03    1.82       1.9  T
   9   -107.3431252 -0.325351E-07  0.321E-03    1.82       3.7  T
  10   -107.3431256 -0.415365E-06  0.148E-03    1.82       8.1  T
  11   -107.3431256 -0.245548E-07  0.577E-04    1.82      20.7  T
  12   -107.3431257 -0.104682E-07  0.252E-04    1.82      47.4  T
     SCC iter.                  ...        0 min,  0.072 sec
     gradient                   ...        0 min,  0.013 sec
 * total energy  :  -105.6797373 Eh     change        0.2066108E-02 Eh
   gradient norm :     0.0426180 Eh/α   predicted    -0.1737957E-02 (-184.12%)
   displ. norm   :     0.2323684 α      lambda       -0.6714188E-02
   maximum displ.:     0.1709977 α      in ANC's #23, #20, #12, ...

........................................................................
.............................. CYCLE    5 ..............................
........................................................................

 iter      E             dE          RMSdq      gap      omega  full diag
   1   -107.3376740 -0.107338E+03  0.189E-01    1.82       0.0  T
   2   -107.3376160  0.580486E-04  0.124E-01    1.81       1.0  T
   3   -107.3374900  0.125933E-03  0.107E-01    1.83       1.0  T
   4   -107.3379170 -0.427016E-03  0.272E-02    1.82       1.0  T
   5   -107.3379160  0.103592E-05  0.182E-02    1.82       1.0  T
   6   -107.3379231 -0.708235E-05  0.130E-02    1.82       1.0  T
   7   -107.3379255 -0.243779E-05  0.849E-03    1.82       1.4  T
   8   -107.3379260 -0.444550E-06  0.511E-03    1.82       2.3  T
   9   -107.3379264 -0.436758E-06  0.200E-03    1.82       6.0  T
  10   -107.3379265 -0.466386E-07  0.111E-03    1.82      10.8  T
  11   -107.3379265 -0.348687E-07  0.403E-04    1.82      29.7  T
  12   -107.3379265 -0.579985E-08  0.120E-04    1.82      99.6  T
     SCC iter.                  ...        0 min,  0.068 sec
     gradient                   ...        0 min,  0.013 sec
 * total energy  :  -105.6831046 Eh     change       -0.3367253E-02 Eh
   gradient norm :     0.0122143 Eh/α   predicted    -0.3538433E-02 (   5.08%)
   displ. norm   :     0.1507489 α      lambda       -0.5952427E-03
   maximum displ.:     0.0577338 α      in ANC's #40, #31, #32, ...

........................................................................
.............................. CYCLE    6 ..............................
........................................................................

 iter      E             dE          RMSdq      gap      omega  full diag
   1   -107.3296233 -0.107330E+03  0.908E-02    1.82       0.0  T
   2   -107.3296278 -0.452249E-05  0.532E-02    1.82       1.0  T
   3   -107.3295859  0.419873E-04  0.437E-02    1.82       1.0  T
   4   -107.3296486 -0.627242E-04  0.228E-02    1.82       1.0  T
   5   -107.3296585 -0.995225E-05  0.103E-02    1.82       1.2  T
   6   -107.3296581  0.438501E-06  0.837E-03    1.82       1.4  T
   7   -107.3296595 -0.140530E-05  0.546E-03    1.82       2.2  T
   8   -107.3296599 -0.357934E-06  0.247E-03    1.82       4.8  T
   9   -107.3296599 -0.865401E-07  0.123E-03    1.82       9.7  T
  10   -107.3296600 -0.617159E-07  0.462E-04    1.82      25.9  T
  11   -107.3296600 -0.292741E-08  0.240E-04    1.82      49.9  T
     SCC iter.                  ...        0 min,  0.062 sec
     gradient                   ...        0 min,  0.012 sec
 * total energy  :  -105.6831932 Eh     change       -0.8861583E-04 Eh
   gradient norm :     0.0112250 Eh/α   predicted    -0.3043912E-03 ( 243.50%)
   displ. norm   :     0.2122798 α      lambda       -0.9188734E-03
   maximum displ.:     0.0686614 α      in ANC's #4, #20, #6, ...

........................................................................
.............................. CYCLE    7 ..............................
........................................................................

 iter      E             dE          RMSdq      gap      omega  full diag
   1   -107.3218901 -0.107322E+03  0.107E-01    1.79       0.0  T
   2   -107.3218864  0.365900E-05  0.653E-02    1.80       1.0  T
   3   -107.3218493  0.371419E-04  0.550E-02    1.79       1.0  T
   4   -107.3219339 -0.845727E-04  0.239E-02    1.79       1.0  T
   5   -107.3219445 -0.106289E-04  0.921E-03    1.79       1.3  T
   6   -107.3219445  0.116625E-07  0.727E-03    1.79       1.6  T
   7   -107.3219447 -0.207572E-06  0.570E-03    1.79       2.1  T
   8   -107.3219455 -0.837133E-06  0.238E-03    1.79       5.0  T
   9   -107.3219455  0.231781E-07  0.140E-03    1.79       8.6  T
  10   -107.3219456 -0.110385E-06  0.530E-04    1.79      22.6  T
  11   -107.3219456 -0.511628E-08  0.238E-04    1.79      50.3  T
     SCC iter.                  ...        0 min,  0.064 sec
     gradient                   ...        0 min,  0.013 sec
 * total energy  :  -105.6837296 Eh     change       -0.5364061E-03 Eh
   gradient norm :     0.0131120 Eh/α   predicted    -0.4801434E-03 ( -10.49%)
   displ. norm   :     0.2471311 α      lambda       -0.5988310E-03
   maximum displ.:     0.0876519 α      in ANC's #4, #6, #9, ...

........................................................................
.............................. CYCLE    8 ..............................
........................................................................

 iter      E             dE          RMSdq      gap      omega  full diag
   1   -107.3241835 -0.107324E+03  0.795E-02    1.75       0.0  T
   2   -107.3241983 -0.148828E-04  0.473E-02    1.76       1.0  T
   3   -107.3241774  0.209730E-04  0.404E-02    1.75       1.0  T
   4   -107.3242206 -0.432736E-04  0.128E-02    1.75       1.0  T
   5   -107.3242237 -0.303568E-05  0.513E-03    1.75       2.3  T
   6   -107.3242242 -0.485418E-06  0.263E-03    1.75       4.6  T
   7   -107.3242241  0.741213E-07  0.220E-03    1.75       5.4  T
   8   -107.3242243 -0.177824E-06  0.126E-03    1.75       9.5  T
   9   -107.3242243 -0.217963E-07  0.744E-04    1.75      16.1  T
  10   -107.3242243 -0.920765E-08  0.373E-04    1.75      32.0  T
     SCC iter.                  ...        0 min,  0.059 sec
     gradient                   ...        0 min,  0.012 sec
 * total energy  :  -105.6842469 Eh     change       -0.5173406E-03 Eh
   gradient norm :     0.0139526 Eh/α   predicted    -0.3177028E-03 ( -38.59%)
   displ. norm   :     0.6576851 α      lambda       -0.1721960E-02
   maximum displ.:     0.2429232 α      in ANC's #4, #6, #9, ...

........................................................................
.............................. CYCLE    9 ..............................
........................................................................

 iter      E             dE          RMSdq      gap      omega  full diag
   1   -107.3291553 -0.107329E+03  0.196E-01    1.65       0.0  T
   2   -107.3293369 -0.181659E-03  0.114E-01    1.66       1.0  T
   3   -107.3292322  0.104757E-03  0.919E-02    1.64       1.0  T
   4   -107.3294057 -0.173529E-03  0.389E-02    1.65       1.0  T
   5   -107.3294486 -0.428993E-04  0.109E-02    1.65       1.1  T
   6   -107.3294496 -0.953610E-06  0.608E-03    1.65       2.0  T
   7   -107.3294493  0.263402E-06  0.491E-03    1.65       2.4  T
   8   -107.3294503 -0.102054E-05  0.262E-03    1.65       4.6  T
   9   -107.3294504 -0.753826E-07  0.167E-03    1.65       7.1  T
  10   -107.3294504 -0.442658E-07  0.944E-04    1.65      12.7  T
  11   -107.3294504 -0.595388E-08  0.505E-04    1.65      23.7  T
     SCC iter.                  ...        0 min,  0.064 sec
     gradient                   ...        0 min,  0.012 sec
 * total energy  :  -105.6859397 Eh     change       -0.1692751E-02 Eh
   gradient norm :     0.0220591 Eh/α   predicted    -0.1233405E-02 ( -27.14%)
   displ. norm   :     0.8118546 α      lambda       -0.3116808E-02
   maximum displ.:     0.2887487 α      in ANC's #4, #6, #9, ...

........................................................................
.............................. CYCLE   10 ..............................
........................................................................

 iter      E             dE          RMSdq      gap      omega  full diag
   1   -107.3443171 -0.107344E+03  0.245E-01    1.53       0.0  T
   2   -107.3446346 -0.317523E-03  0.145E-01    1.53       1.0  T
   3   -107.3443422  0.292429E-03  0.122E-01    1.51       1.0  T
   4   -107.3447593 -0.417180E-03  0.410E-02    1.52       1.0  T
   5   -107.3447921 -0.327866E-04  0.173E-02    1.51       1.0  T
   6   -107.3447943 -0.218059E-05  0.110E-02    1.51       1.1  T
   7   -107.3447942  0.986904E-07  0.817E-03    1.51       1.5  T
   8   -107.3447951 -0.871783E-06  0.548E-03    1.51       2.2  T
   9   -107.3447960 -0.950285E-06  0.296E-03    1.51       4.0  T
  10   -107.3447962 -0.154235E-06  0.157E-03    1.51       7.6  T
  11   -107.3447962 -0.136823E-07  0.814E-04    1.51      14.7  T
  12   -107.3447962 -0.164802E-07  0.384E-04    1.51      31.1  T
     SCC iter.                  ...        0 min,  0.069 sec
     gradient                   ...        0 min,  0.013 sec
 * total energy  :  -105.6877258 Eh     change       -0.1786132E-02 Eh
   gradient norm :     0.0322703 Eh/α   predicted    -0.2585573E-02 (  44.76%)
   displ. norm   :     0.1130344 α      lambda       -0.1353034E-02
   maximum displ.:     0.0367766 α      in ANC's #3, #4, #1, ...

........................................................................
.............................. CYCLE   11 ..............................
........................................................................

 iter      E             dE          RMSdq      gap      omega  full diag
   1   -107.3512341 -0.107351E+03  0.522E-02    1.53       0.0  T
   2   -107.3512230  0.110913E-04  0.390E-02    1.52       1.0  T
   3   -107.3512516 -0.285694E-04  0.253E-02    1.53       1.0  T
   4   -107.3512659 -0.143676E-04  0.798E-03    1.53       1.5  T
   5   -107.3512662 -0.255341E-06  0.507E-03    1.53       2.4  T
   6   -107.3512664 -0.193913E-06  0.362E-03    1.53       3.3  T
   7   -107.3512665 -0.896102E-07  0.251E-03    1.53       4.8  T
   8   -107.3512666 -0.966862E-07  0.141E-03    1.53       8.5  T
   9   -107.3512666 -0.223139E-07  0.774E-04    1.53      15.4  T
  10   -107.3512666 -0.178614E-07  0.354E-04    1.53      33.8  T
     SCC iter.                  ...        0 min,  0.055 sec
     gradient                   ...        0 min,  0.012 sec
 * total energy  :  -105.6887767 Eh     change       -0.1050883E-02 Eh
   gradient norm :     0.0282874 Eh/α   predicted    -0.6851605E-03 ( -34.80%)
   displ. norm   :     0.4871490 α      lambda       -0.2865910E-02
   maximum displ.:     0.1948044 α      in ANC's #4, #1, #40, ...

........................................................................
.............................. CYCLE   12 ..............................
........................................................................

 iter      E             dE          RMSdq      gap      omega  full diag
   1   -107.3466859 -0.107347E+03  0.148E-01    1.52       0.0  T
   2   -107.3467061 -0.201734E-04  0.991E-02    1.52       1.0  T
   3   -107.3467196 -0.134943E-04  0.747E-02    1.52       1.0  T
   4   -107.3468442 -0.124588E-03  0.287E-02    1.52       1.0  T
   5   -107.3468572 -0.130105E-04  0.172E-02    1.52       1.0  T
   6   -107.3468608 -0.364434E-05  0.103E-02    1.52       1.2  T
   7   -107.3468606  0.171729E-06  0.666E-03    1.52       1.8  T
   8   -107.3468613 -0.698310E-06  0.366E-03    1.52       3.3  T
   9   -107.3468616 -0.229564E-06  0.169E-03    1.52       7.1  T
  10   -107.3468617 -0.899608E-07  0.104E-03    1.52      11.4  T
  11   -107.3468617 -0.395985E-07  0.353E-04    1.52      33.9  T
  12   -107.3468617 -0.330942E-09  0.200E-04    1.52      59.9  T
     SCC iter.                  ...        0 min,  0.072 sec
     gradient                   ...        0 min,  0.014 sec
 * total energy  :  -105.6908717 Eh     change       -0.2095003E-02 Eh
   gradient norm :     0.0205262 Eh/α   predicted    -0.1773000E-02 ( -15.37%)
   displ. norm   :     0.5077448 α      lambda       -0.3224214E-02
   maximum displ.:     0.1787086 α      in ANC's #40, #3, #19, ...

........................................................................
.............................. CYCLE   13 ..............................
........................................................................

 iter      E             dE          RMSdq      gap      omega  full diag
   1   -107.3793996 -0.107379E+03  0.181E-01    1.50       0.0  T
   2   -107.3794255 -0.258573E-04  0.115E-01    1.48       1.0  T
   3   -107.3792702  0.155268E-03  0.101E-01    1.49       1.0  T
   4   -107.3795560 -0.285792E-03  0.294E-02    1.48       1.0  T
   5   -107.3795620 -0.596731E-05  0.169E-02    1.48       1.0  T
   6   -107.3795613  0.688314E-06  0.130E-02    1.48       1.0  T
   7   -107.3795644 -0.304896E-05  0.832E-03    1.48       1.4  T
   8   -107.3795650 -0.672978E-06  0.472E-03    1.48       2.5  T
   9   -107.3795654 -0.318486E-06  0.240E-03    1.48       5.0  T
  10   -107.3795656 -0.226623E-06  0.122E-03    1.48       9.8  T
  11   -107.3795656 -0.236372E-07  0.596E-04    1.48      20.0  T
  12   -107.3795656 -0.641701E-08  0.316E-04    1.48      37.9  T
     SCC iter.                  ...        0 min,  0.083 sec
     gradient                   ...        0 min,  0.014 sec
 * total energy  :  -105.6918030 Eh     change       -0.9312722E-03 Eh
   gradient norm :     0.0304011 Eh/α   predicted    -0.2027695E-02 ( 117.73%)
   displ. norm   :     0.4600704 α      lambda       -0.2305968E-02
   maximum displ.:     0.1670308 α      in ANC's #4, #15, #6, ...

........................................................................
.............................. CYCLE   14 ..............................
........................................................................

 iter      E             dE          RMSdq      gap      omega  full diag
   1   -107.3507825 -0.107351E+03  0.161E-01    1.51       0.0  T
   2   -107.3505961  0.186349E-03  0.153E-01    1.49       1.0  T
   3   -107.3513253 -0.729148E-03  0.677E-02    1.49       1.0  T
   4   -107.3513536 -0.283471E-04  0.359E-02    1.50       1.0  T
   5   -107.3513594 -0.577457E-05  0.215E-02    1.49       1.0  T
   6   -107.3513728 -0.133850E-04  0.107E-02    1.49       1.1  T
   7   -107.3513721  0.692150E-06  0.837E-03    1.49       1.4  T
   8   -107.3513734 -0.133948E-05  0.399E-03    1.49       3.0  T
   9   -107.3513737 -0.246027E-06  0.217E-03    1.49       5.5  T
  10   -107.3513738 -0.124915E-06  0.132E-03    1.49       9.1  T
  11   -107.3513738 -0.324814E-07  0.405E-04    1.49      29.5  T
  12   -107.3513738 -0.475248E-08  0.226E-04    1.49      53.0  T
     SCC iter.                  ...        0 min,  0.069 sec
     gradient                   ...        0 min,  0.014 sec
 * total energy  :  -105.6929863 Eh     change       -0.1183320E-02 Eh
   gradient norm :     0.0118457 Eh/α   predicted    -0.1397037E-02 (  18.06%)
   displ. norm   :     0.1720956 α      lambda       -0.5939752E-03
   maximum displ.:     0.0612722 α      in ANC's #8, #15, #13, ...

........................................................................
.............................. CYCLE   15 ..............................
........................................................................

 iter      E             dE          RMSdq      gap      omega  full diag
   1   -107.3455085 -0.107346E+03  0.861E-02    1.49       0.0  T
   2   -107.3454990  0.945727E-05  0.580E-02    1.50       1.0  T
   3   -107.3454561  0.429417E-04  0.494E-02    1.49       1.0  T
   4   -107.3455612 -0.105085E-03  0.127E-02    1.50       1.0  T
   5   -107.3455618 -0.634056E-06  0.672E-03    1.50       1.8  T
   6   -107.3455627 -0.861438E-06  0.447E-03    1.50       2.7  T
   7   -107.3455626  0.764402E-07  0.371E-03    1.50       3.2  T
   8   -107.3455629 -0.330401E-06  0.203E-03    1.50       5.9  T
   9   -107.3455630 -0.475302E-07  0.907E-04    1.50      13.2  T
  10   -107.3455630 -0.152950E-07  0.522E-04    1.50      22.9  T
     SCC iter.                  ...        0 min,  0.054 sec
     gradient                   ...        0 min,  0.011 sec
 * total energy  :  -105.6932535 Eh     change       -0.2671571E-03 Eh
   gradient norm :     0.0104831 Eh/α   predicted    -0.3057841E-03 (  14.46%)
   displ. norm   :     0.3146027 α      lambda       -0.4843636E-03
   maximum displ.:     0.1255635 α      in ANC's #15, #6, #4, ...

........................................................................
.............................. CYCLE   16 ..............................
........................................................................

 iter      E             dE          RMSdq      gap      omega  full diag
   1   -107.3499231 -0.107350E+03  0.876E-02    1.50       0.0  T
   2   -107.3499389 -0.158311E-04  0.569E-02    1.50       1.0  T
   3   -107.3499519 -0.129673E-04  0.398E-02    1.50       1.0  T
   4   -107.3499719 -0.200050E-04  0.176E-02    1.50       1.0  T
   5   -107.3499751 -0.326311E-05  0.114E-02    1.50       1.0  T
   6   -107.3499788 -0.367467E-05  0.571E-03    1.50       2.1  T
   7   -107.3499786  0.209698E-06  0.396E-03    1.50       3.0  T
   8   -107.3499791 -0.459298E-06  0.160E-03    1.50       7.5  T
   9   -107.3499791 -0.170786E-07  0.884E-04    1.50      13.5  T
  10   -107.3499791 -0.267958E-08  0.618E-04    1.50      19.3  T
     SCC iter.                  ...        0 min,  0.058 sec
     gradient                   ...        0 min,  0.011 sec
 * total energy  :  -105.6935526 Eh     change       -0.2991703E-03 Eh
   gradient norm :     0.0101622 Eh/α   predicted    -0.2661508E-03 ( -11.04%)
   displ. norm   :     0.2757778 α      lambda       -0.3771710E-03
   maximum displ.:     0.1131651 α      in ANC's #15, #20, #40, ...

........................................................................
.............................. CYCLE   17 ..............................
........................................................................

 iter      E             dE          RMSdq      gap      omega  full diag
   1   -107.3536715 -0.107354E+03  0.744E-02    1.50       0.0  T
   2   -107.3536683  0.324064E-05  0.473E-02    1.49       1.0  T
   3   -107.3536042  0.641374E-04  0.450E-02    1.50       1.0  T
   4   -107.3537050 -0.100840E-03  0.101E-02    1.50       1.2  T
   5   -107.3537057 -0.647558E-06  0.611E-03    1.50       2.0  T
   6   -107.3537057 -0.661419E-07  0.504E-03    1.50       2.4  T
   7   -107.3537058 -0.972857E-07  0.338E-03    1.50       3.5  T
   8   -107.3537061 -0.248971E-06  0.151E-03    1.49       7.9  T
   9   -107.3537061 -0.386858E-07  0.639E-04    1.49      18.7  T
  10   -107.3537061 -0.898667E-08  0.335E-04    1.49      35.6  T
     SCC iter.                  ...        0 min,  0.058 sec
     gradient                   ...        0 min,  0.012 sec
 * total energy  :  -105.6937674 Eh     change       -0.2147871E-03 Eh
   gradient norm :     0.0075188 Eh/α   predicted    -0.2029302E-03 (  -5.52%)
   displ. norm   :     0.2443211 α      lambda       -0.1742221E-03
   maximum displ.:     0.1035484 α      in ANC's #15, #6, #40, ...

........................................................................
.............................. CYCLE   18 ..............................
........................................................................

 iter      E             dE          RMSdq      gap      omega  full diag
   1   -107.3537518 -0.107354E+03  0.694E-02    1.50       0.0  T
   2   -107.3537617 -0.986474E-05  0.384E-02    1.50       1.0  T
   3   -107.3537582  0.351078E-05  0.249E-02    1.50       1.0  T
   4   -107.3537656 -0.740065E-05  0.130E-02    1.50       1.0  T
   5   -107.3537682 -0.263583E-05  0.665E-03    1.50       1.8  T
   6   -107.3537698 -0.161132E-05  0.371E-03    1.50       3.2  T
   7   -107.3537699 -0.708976E-07  0.217E-03    1.50       5.5  T
   8   -107.3537700 -0.106850E-06  0.115E-03    1.50      10.4  T
   9   -107.3537700 -0.203065E-07  0.553E-04    1.50      21.6  T
  10   -107.3537700 -0.432418E-08  0.308E-04    1.50      38.8  T
     SCC iter.                  ...        0 min,  0.058 sec
     gradient                   ...        0 min,  0.012 sec
 * total energy  :  -105.6938954 Eh     change       -0.1279660E-03 Eh
   gradient norm :     0.0050167 Eh/α   predicted    -0.9231623E-04 ( -27.86%)
   displ. norm   :     0.3570516 α      lambda       -0.2282553E-03
   maximum displ.:     0.1360669 α      in ANC's #15, #6, #3, ...

........................................................................
.............................. CYCLE   19 ..............................
........................................................................

 iter      E             dE          RMSdq      gap      omega  full diag
   1   -107.3521673 -0.107352E+03  0.994E-02    1.50       0.0  T
   2   -107.3521686 -0.132480E-05  0.586E-02    1.51       1.0  T
   3   -107.3521331  0.355256E-04  0.478E-02    1.50       1.0  T
   4   -107.3521893 -0.562131E-04  0.177E-02    1.51       1.0  T
   5   -107.3521939 -0.453668E-05  0.769E-03    1.51       1.6  T
   6   -107.3521946 -0.738064E-06  0.447E-03    1.51       2.7  T
   7   -107.3521945  0.786047E-07  0.297E-03    1.51       4.0  T
   8   -107.3521947 -0.160006E-06  0.148E-03    1.51       8.1  T
   9   -107.3521947 -0.619046E-07  0.784E-04    1.51      15.3  T
  10   -107.3521948 -0.146673E-07  0.510E-04    1.51      23.4  T
     SCC iter.                  ...        0 min,  0.054 sec
     gradient                   ...        0 min,  0.014 sec
 * total energy  :  -105.6940484 Eh     change       -0.1529974E-03 Eh
   gradient norm :     0.0058755 Eh/α   predicted    -0.1286824E-03 ( -15.89%)
   displ. norm   :     0.3359680 α      lambda       -0.2205195E-03
   maximum displ.:     0.1238737 α      in ANC's #6, #3, #5, ...

........................................................................
.............................. CYCLE   20 ..............................
........................................................................

 iter      E             dE          RMSdq      gap      omega  full diag
   1   -107.3539562 -0.107354E+03  0.851E-02    1.52       0.0  T
   2   -107.3539537  0.251561E-05  0.505E-02    1.52       1.0  T
   3   -107.3538772  0.765065E-04  0.459E-02    1.52       1.0  T
   4   -107.3539845 -0.107325E-03  0.130E-02    1.52       1.0  T
   5   -107.3539857 -0.116774E-05  0.393E-03    1.52       3.0  T
   6   -107.3539859 -0.255750E-06  0.220E-03    1.52       5.4  T
   7   -107.3539859 -0.110284E-07  0.130E-03    1.52       9.2  T
   8   -107.3539859 -0.468063E-08  0.943E-04    1.52      12.7  T
   9   -107.3539859 -0.173206E-07  0.444E-04    1.52      26.9  T
     SCC iter.                  ...        0 min,  0.051 sec
     gradient                   ...        0 min,  0.013 sec
 * total energy  :  -105.6941835 Eh     change       -0.1351073E-03 Eh
   gradient norm :     0.0075017 Eh/α   predicted    -0.1227081E-03 (  -9.18%)
   displ. norm   :     0.3481523 α      lambda       -0.2098414E-03
   maximum displ.:     0.1224859 α      in ANC's #6, #3, #5, ...
 * RMSD in coord.:     0.5828774 α      energy gain  -0.2465353E-01 Eh

generating ANC from model Hessian ...
Using Lindh-Hessian (1995)
 Shifting diagonal of input Hessian by   9.929618368126360E-003
 Lowest  eigenvalues of input Hessian
    0.000000    0.000000    0.000000    0.000000    0.000000    0.000000
    0.010000    0.010049    0.010100    0.010275    0.010447    0.010503
    0.010548    0.010635    0.010738    0.010892    0.010903    0.010996
 Highest eigenvalues
    2.001106    2.003510    2.004441    2.007202    2.396390    2.410748
 

........................................................................
.............................. CYCLE   21 ..............................
........................................................................

 iter      E             dE          RMSdq      gap      omega  full diag
   1   -107.3535724 -0.107354E+03  0.959E-02    1.53       0.0  T
   2   -107.3535725 -0.134254E-06  0.607E-02    1.53       1.0  T
   3   -107.3535460  0.265227E-04  0.486E-02    1.53       1.0  T
   4   -107.3535953 -0.492975E-04  0.144E-02    1.53       1.0  T
   5   -107.3536003 -0.498567E-05  0.816E-03    1.53       1.5  T
   6   -107.3536016 -0.135038E-05  0.463E-03    1.53       2.6  T
   7   -107.3536013  0.254292E-06  0.325E-03    1.53       3.7  T
   8   -107.3536017 -0.391796E-06  0.132E-03    1.53       9.0  T
   9   -107.3536018 -0.190661E-07  0.706E-04    1.53      16.9  T
  10   -107.3536018 -0.442334E-08  0.482E-04    1.53      24.8  T
     SCC iter.                  ...        0 min,  0.059 sec
     gradient                   ...        0 min,  0.014 sec
 * total energy  :  -105.6943367 Eh     change       -0.1532222E-03 Eh
   gradient norm :     0.0061199 Eh/α   predicted     0.0000000E+00 (-100.00%)
   displ. norm   :     0.1171618 α      lambda       -0.2207865E-03
   maximum displ.:     0.0562028 α      in ANC's #21, #20, #7, ...

........................................................................
.............................. CYCLE   22 ..............................
........................................................................

 iter      E             dE          RMSdq      gap      omega  full diag
   1   -107.3552181 -0.107355E+03  0.805E-02    1.52       0.0  T
   2   -107.3552217 -0.357193E-05  0.429E-02    1.52       1.0  T
   3   -107.3552143  0.736811E-05  0.280E-02    1.52       1.0  T
   4   -107.3552150 -0.690402E-06  0.177E-02    1.52       1.0  T
   5   -107.3552261 -0.110369E-04  0.569E-03    1.52       2.1  T
   6   -107.3552263 -0.212997E-06  0.432E-03    1.52       2.8  T
   7   -107.3552264 -0.176162E-06  0.230E-03    1.52       5.2  T
   8   -107.3552265 -0.301677E-07  0.132E-03    1.52       9.0  T
   9   -107.3552265 -0.515053E-07  0.594E-04    1.52      20.1  T
  10   -107.3552265 -0.654761E-08  0.329E-04    1.52      36.3  T
     SCC iter.                  ...        0 min,  0.069 sec
     gradient                   ...        0 min,  0.012 sec
 * total energy  :  -105.6943755 Eh     change       -0.3880104E-04 Eh
   gradient norm :     0.0059780 Eh/α   predicted    -0.1163096E-03 ( 199.76%)
   displ. norm   :     0.1550984 α      lambda       -0.3469696E-03
   maximum displ.:     0.0581916 α      in ANC's #20, #23, #24, ...

........................................................................
.............................. CYCLE   23 ..............................
........................................................................

 iter      E             dE          RMSdq      gap      omega  full diag
   1   -107.3586158 -0.107359E+03  0.584E-02    1.53       0.0  T
   2   -107.3586113  0.447044E-05  0.373E-02    1.52       1.0  T
   3   -107.3586185 -0.713587E-05  0.280E-02    1.53       1.0  T
   4   -107.3586339 -0.154474E-04  0.114E-02    1.52       1.0  T
   5   -107.3586353 -0.140716E-05  0.517E-03    1.52       2.3  T
   6   -107.3586357 -0.368974E-06  0.352E-03    1.52       3.4  T
   7   -107.3586357 -0.301637E-07  0.229E-03    1.52       5.2  T
   8   -107.3586358 -0.268689E-07  0.166E-03    1.52       7.2  T
   9   -107.3586359 -0.910032E-07  0.599E-04    1.52      19.9  T
  10   -107.3586359 -0.111154E-08  0.346E-04    1.52      34.6  T
     SCC iter.                  ...        0 min,  0.063 sec
     gradient                   ...        0 min,  0.013 sec
 * total energy  :  -105.6945679 Eh     change       -0.1923548E-03 Eh
   gradient norm :     0.0050909 Eh/α   predicted    -0.1776606E-03 (  -7.64%)
   displ. norm   :     0.1393587 α      lambda       -0.1436348E-03
   maximum displ.:     0.0544738 α      in ANC's #20, #23, #22, ...

........................................................................
.............................. CYCLE   24 ..............................
........................................................................

 iter      E             dE          RMSdq      gap      omega  full diag
   1   -107.3576936 -0.107358E+03  0.468E-02    1.51       0.0  T
   2   -107.3576968 -0.312415E-05  0.255E-02    1.51       1.0  T
   3   -107.3576900  0.677620E-05  0.182E-02    1.51       1.0  T
   4   -107.3576987 -0.870657E-05  0.956E-03    1.51       1.2  T
   5   -107.3576997 -0.965728E-06  0.521E-03    1.51       2.3  T
   6   -107.3577000 -0.364282E-06  0.356E-03    1.51       3.4  T
   7   -107.3577001 -0.616692E-07  0.220E-03    1.51       5.4  T
   8   -107.3577001 -0.512130E-07  0.109E-03    1.51      11.0  T
   9   -107.3577002 -0.260365E-07  0.614E-04    1.51      19.5  T
  10   -107.3577002 -0.650701E-09  0.371E-04    1.51      32.3  T
     SCC iter.                  ...        0 min,  0.066 sec
     gradient                   ...        0 min,  0.014 sec
 * total energy  :  -105.6945918 Eh     change       -0.2391606E-04 Eh
   gradient norm :     0.0061924 Eh/α   predicted    -0.7321230E-04 ( 206.12%)
   displ. norm   :     0.1623248 α      lambda       -0.2042785E-03
   maximum displ.:     0.0690147 α      in ANC's #20, #6, #7, ...

........................................................................
.............................. CYCLE   25 ..............................
........................................................................

 iter      E             dE          RMSdq      gap      omega  full diag
   1   -107.3547718 -0.107355E+03  0.587E-02    1.52       0.0  T
   2   -107.3547710  0.777475E-06  0.355E-02    1.52       1.0  T
   3   -107.3547585  0.124419E-04  0.284E-02    1.52       1.0  T
   4   -107.3547801 -0.215685E-04  0.109E-02    1.52       1.1  T
   5   -107.3547823 -0.215117E-05  0.325E-03    1.52       3.7  T
   6   -107.3547824 -0.817965E-07  0.257E-03    1.52       4.7  T
   7   -107.3547824 -0.479101E-07  0.175E-03    1.52       6.8  T
   8   -107.3547825 -0.597082E-07  0.112E-03    1.52      10.7  T
   9   -107.3547825 -0.207419E-07  0.541E-04    1.52      22.1  T
  10   -107.3547825 -0.367508E-08  0.295E-04    1.52      40.6  T
     SCC iter.                  ...        0 min,  0.060 sec
     gradient                   ...        0 min,  0.012 sec
 * total energy  :  -105.6946814 Eh     change       -0.8965527E-04 Eh
   gradient norm :     0.0048861 Eh/α   predicted    -0.1048315E-03 (  16.93%)
   displ. norm   :     0.0456920 α      lambda       -0.6481780E-04
   maximum displ.:     0.0198138 α      in ANC's #6, #11, #7, ...

........................................................................
.............................. CYCLE   26 ..............................
........................................................................

 iter      E             dE          RMSdq      gap      omega  full diag
   1   -107.3554812 -0.107355E+03  0.211E-02    1.52       0.0  T
   2   -107.3554816 -0.389072E-06  0.125E-02    1.52       1.0  T
   3   -107.3554798  0.180995E-05  0.101E-02    1.52       1.2  T
   4   -107.3554822 -0.240307E-05  0.245E-03    1.52       4.9  T
   5   -107.3554822  0.745601E-08  0.167E-03    1.52       7.2  T
   6   -107.3554823 -0.115501E-06  0.434E-04    1.52      27.5  T
   7   -107.3554823 -0.811895E-09  0.287E-04    1.52      41.6  T
     SCC iter.                  ...        0 min,  0.038 sec
     gradient                   ...        0 min,  0.013 sec
 * total energy  :  -105.6947294 Eh     change       -0.4792380E-04 Eh
   gradient norm :     0.0027983 Eh/α   predicted    -0.3247807E-04 ( -32.23%)
   displ. norm   :     0.1674586 α      lambda       -0.9098508E-04
   maximum displ.:     0.0713536 α      in ANC's #6, #11, #17, ...

........................................................................
.............................. CYCLE   27 ..............................
........................................................................

 iter      E             dE          RMSdq      gap      omega  full diag
   1   -107.3559482 -0.107356E+03  0.438E-02    1.52       0.0  T
   2   -107.3559473  0.929318E-06  0.265E-02    1.52       1.0  T
   3   -107.3559236  0.236743E-04  0.253E-02    1.52       1.0  T
   4   -107.3559507 -0.271612E-04  0.333E-03    1.52       3.6  T
   5   -107.3559508 -0.416893E-07  0.174E-03    1.52       6.9  T
   6   -107.3559509 -0.759745E-07  0.114E-03    1.52      10.5  T
   7   -107.3559509 -0.748395E-08  0.734E-04    1.52      16.3  T
   8   -107.3559509 -0.866164E-08  0.421E-04    1.52      28.4  T
     SCC iter.                  ...        0 min,  0.048 sec
     gradient                   ...        0 min,  0.013 sec
 * total energy  :  -105.6948004 Eh     change       -0.7103739E-04 Eh
   gradient norm :     0.0018693 Eh/α   predicted    -0.4676879E-04 ( -34.16%)
   displ. norm   :     0.4786553 α      lambda       -0.1205948E-03
   maximum displ.:     0.2025282 α      in ANC's #6, #11, #17, ...

........................................................................
.............................. CYCLE   28 ..............................
........................................................................

 iter      E             dE          RMSdq      gap      omega  full diag
   1   -107.3543181 -0.107354E+03  0.115E-01    1.52       0.0  T
   2   -107.3543187 -0.610999E-06  0.661E-02    1.53       1.0  T
   3   -107.3542399  0.787239E-04  0.372E-02    1.52       1.0  T
   4   -107.3543189 -0.790035E-04  0.148E-02    1.53       1.0  T
   5   -107.3543268 -0.790144E-05  0.374E-03    1.52       3.2  T
   6   -107.3543269 -0.742126E-07  0.304E-03    1.52       3.9  T
   7   -107.3543270 -0.848318E-07  0.167E-03    1.52       7.2  T
   8   -107.3543270 -0.206608E-07  0.110E-03    1.52      10.8  T
   9   -107.3543271 -0.297470E-07  0.527E-04    1.52      22.7  T
  10   -107.3543271 -0.259689E-08  0.255E-04    1.52      46.9  T
     SCC iter.                  ...        0 min,  0.056 sec
     gradient                   ...        0 min,  0.012 sec
 * total energy  :  -105.6949120 Eh     change       -0.1116374E-03 Eh
   gradient norm :     0.0057964 Eh/α   predicted    -0.6644366E-04 ( -40.48%)
   displ. norm   :     0.2050332 α      lambda       -0.9819178E-04
   maximum displ.:     0.0922452 α      in ANC's #6, #11, #7, ...

........................................................................
.............................. CYCLE   29 ..............................
........................................................................

 iter      E             dE          RMSdq      gap      omega  full diag
   1   -107.3556620 -0.107356E+03  0.513E-02    1.53       0.0  T
   2   -107.3556632 -0.120823E-05  0.286E-02    1.53       1.0  T
   3   -107.3556507  0.125517E-04  0.191E-02    1.53       1.0  T
   4   -107.3556620 -0.113562E-04  0.112E-02    1.53       1.1  T
   5   -107.3556665 -0.443263E-05  0.313E-03    1.53       3.8  T
   6   -107.3556666 -0.100892E-06  0.201E-03    1.53       6.0  T
   7   -107.3556666 -0.114952E-07  0.108E-03    1.53      11.1  T
   8   -107.3556666 -0.859387E-08  0.628E-04    1.53      19.0  T
   9   -107.3556666 -0.116981E-07  0.284E-04    1.53      42.0  T
     SCC iter.                  ...        0 min,  0.052 sec
     gradient                   ...        0 min,  0.012 sec
 * total energy  :  -105.6949885 Eh     change       -0.7649354E-04 Eh
   gradient norm :     0.0055701 Eh/α   predicted    -0.5116195E-04 ( -33.12%)
   displ. norm   :     0.4516219 α      lambda       -0.1688828E-03
   maximum displ.:     0.1994375 α      in ANC's #6, #11, #7, ...

........................................................................
.............................. CYCLE   30 ..............................
........................................................................

 iter      E             dE          RMSdq      gap      omega  full diag
   1   -107.3548889 -0.107355E+03  0.108E-01    1.54       0.0  T
   2   -107.3548956 -0.669092E-05  0.632E-02    1.54       1.0  T
   3   -107.3548704  0.252390E-04  0.429E-02    1.54       1.0  T
   4   -107.3548985 -0.281421E-04  0.155E-02    1.54       1.0  T
   5   -107.3549040 -0.546854E-05  0.787E-03    1.53       1.5  T
   6   -107.3549056 -0.160713E-05  0.441E-03    1.53       2.7  T
   7   -107.3549055  0.108741E-06  0.277E-03    1.53       4.3  T
   8   -107.3549057 -0.240582E-06  0.124E-03    1.53       9.7  T
   9   -107.3549057 -0.209117E-07  0.702E-04    1.53      17.0  T
  10   -107.3549057  0.991633E-09  0.517E-04    1.53      23.1  T
     SCC iter.                  ...        0 min,  0.056 sec
     gradient                   ...        0 min,  0.014 sec
 * total energy  :  -105.6951067 Eh     change       -0.1181610E-03 Eh
   gradient norm :     0.0038220 Eh/α   predicted    -0.1016677E-03 ( -13.96%)
   displ. norm   :     0.2992459 α      lambda       -0.1111049E-03
   maximum displ.:     0.1323802 α      in ANC's #6, #11, #13, ...

........................................................................
.............................. CYCLE   31 ..............................
........................................................................

 iter      E             dE          RMSdq      gap      omega  full diag
   1   -107.3567550 -0.107357E+03  0.726E-02    1.54       0.0  T
   2   -107.3567624 -0.739420E-05  0.413E-02    1.54       1.0  T
   3   -107.3567596  0.278934E-05  0.265E-02    1.54       1.0  T
   4   -107.3567663 -0.670572E-05  0.886E-03    1.54       1.3  T
   5   -107.3567670 -0.722362E-06  0.414E-03    1.54       2.9  T
   6   -107.3567672 -0.166076E-06  0.321E-03    1.54       3.7  T
   7   -107.3567672  0.917794E-08  0.219E-03    1.54       5.5  T
   8   -107.3567673 -0.135891E-06  0.786E-04    1.54      15.2  T
   9   -107.3567673 -0.961907E-08  0.414E-04    1.54      28.9  T
     SCC iter.                  ...        0 min,  0.052 sec
     gradient                   ...        0 min,  0.012 sec
 * total energy  :  -105.6951804 Eh     change       -0.7367304E-04 Eh
   gradient norm :     0.0028613 Eh/α   predicted    -0.6053163E-04 ( -17.84%)
   displ. norm   :     0.3400336 α      lambda       -0.6722300E-04
   maximum displ.:     0.1491981 α      in ANC's #6, #11, #13, ...

........................................................................
.............................. CYCLE   32 ..............................
........................................................................

 iter      E             dE          RMSdq      gap      omega  full diag
   1   -107.3556321 -0.107356E+03  0.794E-02    1.55       0.0  T
   2   -107.3556361 -0.403285E-05  0.468E-02    1.55       1.0  T
   3   -107.3556227  0.133612E-04  0.337E-02    1.55       1.0  T
   4   -107.3556399 -0.171947E-04  0.104E-02    1.55       1.1  T
   5   -107.3556420 -0.211211E-05  0.620E-03    1.55       1.9  T
   6   -107.3556431 -0.109179E-05  0.320E-03    1.55       3.7  T
   7   -107.3556430  0.850406E-07  0.220E-03    1.55       5.4  T
   8   -107.3556432 -0.154431E-06  0.860E-04    1.55      13.9  T
   9   -107.3556432 -0.807631E-08  0.515E-04    1.55      23.2  T
     SCC iter.                  ...        0 min,  0.053 sec
     gradient                   ...        0 min,  0.012 sec
 * total energy  :  -105.6952238 Eh     change       -0.4342121E-04 Eh
   gradient norm :     0.0039434 Eh/α   predicted    -0.3750011E-04 ( -13.64%)
   displ. norm   :     0.1992128 α      lambda       -0.7960904E-04
   maximum displ.:     0.1110593 α      in ANC's #13, #6, #11, ...

........................................................................
.............................. CYCLE   33 ..............................
........................................................................

 iter      E             dE          RMSdq      gap      omega  full diag
   1   -107.3587223 -0.107359E+03  0.436E-02    1.56       0.0  T
   2   -107.3587236 -0.130737E-05  0.271E-02    1.55       1.0  T
   3   -107.3587180  0.559628E-05  0.226E-02    1.56       1.0  T
   4   -107.3587301 -0.121101E-04  0.605E-03    1.55       2.0  T
   5   -107.3587308 -0.704670E-06  0.354E-03    1.55       3.4  T
   6   -107.3587312 -0.402733E-06  0.182E-03    1.55       6.6  T
   7   -107.3587312  0.263181E-07  0.158E-03    1.55       7.5  T
   8   -107.3587312 -0.400858E-07  0.753E-04    1.55      15.9  T
   9   -107.3587313 -0.159536E-07  0.329E-04    1.55      36.3  T
     SCC iter.                  ...        0 min,  0.051 sec
     gradient                   ...        0 min,  0.011 sec
 * total energy  :  -105.6952716 Eh     change       -0.4778740E-04 Eh
   gradient norm :     0.0037713 Eh/α   predicted    -0.4138787E-04 ( -13.39%)
   displ. norm   :     0.2052149 α      lambda       -0.4960842E-04
   maximum displ.:     0.0984098 α      in ANC's #13, #6, #11, ...

........................................................................
.............................. CYCLE   34 ..............................
........................................................................

 iter      E             dE          RMSdq      gap      omega  full diag
   1   -107.3587758 -0.107359E+03  0.463E-02    1.55       0.0  T
   2   -107.3587771 -0.122222E-05  0.271E-02    1.55       1.0  T
   3   -107.3587661  0.109526E-04  0.203E-02    1.56       1.0  T
   4   -107.3587796 -0.134710E-04  0.810E-03    1.55       1.5  T
   5   -107.3587811 -0.146930E-05  0.303E-03    1.55       4.0  T
   6   -107.3587813 -0.213611E-06  0.143E-03    1.55       8.4  T
   7   -107.3587813 -0.424605E-08  0.919E-04    1.55      13.0  T
   8   -107.3587813 -0.696764E-08  0.582E-04    1.55      20.5  T
     SCC iter.                  ...        0 min,  0.050 sec
     gradient                   ...        0 min,  0.012 sec
 * total energy  :  -105.6953089 Eh     change       -0.3731042E-04 Eh
   gradient norm :     0.0030807 Eh/α   predicted    -0.2584918E-04 ( -30.72%)
   displ. norm   :     0.2707624 α      lambda       -0.6213204E-04
   maximum displ.:     0.1324358 α      in ANC's #13, #6, #11, ...

........................................................................
.............................. CYCLE   35 ..............................
........................................................................

 iter      E             dE          RMSdq      gap      omega  full diag
   1   -107.3573049 -0.107357E+03  0.605E-02    1.55       0.0  T
   2   -107.3573063 -0.132783E-05  0.365E-02    1.55       1.0  T
   3   -107.3572935  0.127551E-04  0.276E-02    1.55       1.0  T
   4   -107.3573089 -0.153802E-04  0.647E-03    1.55       1.8  T
   5   -107.3573104 -0.149290E-05  0.324E-03    1.55       3.7  T
   6   -107.3573107 -0.330037E-06  0.155E-03    1.55       7.7  T
   7   -107.3573107  0.141649E-07  0.117E-03    1.55      10.2  T
   8   -107.3573107 -0.294318E-07  0.602E-04    1.55      19.8  T
   9   -107.3573107 -0.449293E-08  0.349E-04    1.55      34.2  T
     SCC iter.                  ...        0 min,  0.053 sec
     gradient                   ...        0 min,  0.012 sec
 * total energy  :  -105.6953524 Eh     change       -0.4353684E-04 Eh
   gradient norm :     0.0032406 Eh/α   predicted    -0.3334747E-04 ( -23.40%)
   displ. norm   :     0.2127319 α      lambda       -0.5716158E-04
   maximum displ.:     0.1333322 α      in ANC's #13, #10, #6, ...

........................................................................
.............................. CYCLE   36 ..............................
........................................................................

 iter      E             dE          RMSdq      gap      omega  full diag
   1   -107.3586348 -0.107359E+03  0.455E-02    1.55       0.0  T
   2   -107.3586342  0.604320E-06  0.286E-02    1.55       1.0  T
   3   -107.3586231  0.111098E-04  0.246E-02    1.55       1.0  T
   4   -107.3586405 -0.174020E-04  0.524E-03    1.55       2.3  T
   5   -107.3586410 -0.503641E-06  0.193E-03    1.55       6.2  T
   6   -107.3586411 -0.906905E-07  0.883E-04    1.55      13.5  T
   7   -107.3586411 -0.295032E-08  0.567E-04    1.55      21.1  T
     SCC iter.                  ...        0 min,  0.044 sec
     gradient                   ...        0 min,  0.012 sec
 * total energy  :  -105.6953903 Eh     change       -0.3789416E-04 Eh
   gradient norm :     0.0031533 Eh/α   predicted    -0.2987633E-04 ( -21.16%)
   displ. norm   :     0.2752894 α      lambda       -0.4584944E-04
   maximum displ.:     0.1494668 α      in ANC's #13, #6, #11, ...

........................................................................
.............................. CYCLE   37 ..............................
........................................................................

 iter      E             dE          RMSdq      gap      omega  full diag
   1   -107.3575044 -0.107358E+03  0.605E-02    1.55       0.0  T
   2   -107.3575064 -0.206393E-05  0.362E-02    1.55       1.0  T
   3   -107.3574978  0.863754E-05  0.257E-02    1.55       1.0  T
   4   -107.3575086 -0.108458E-04  0.565E-03    1.55       2.1  T
   5   -107.3575094 -0.733424E-06  0.373E-03    1.55       3.2  T
   6   -107.3575100 -0.578978E-06  0.137E-03    1.55       8.7  T
   7   -107.3575099  0.963257E-08  0.996E-04    1.55      12.0  T
   8   -107.3575100 -0.221319E-07  0.528E-04    1.55      22.6  T
     SCC iter.                  ...        0 min,  0.044 sec
     gradient                   ...        0 min,  0.014 sec
 * total energy  :  -105.6954255 Eh     change       -0.3517050E-04 Eh
   gradient norm :     0.0026936 Eh/α   predicted    -0.2466383E-04 ( -29.87%)
   displ. norm   :     0.2939959 α      lambda       -0.6346076E-04
   maximum displ.:     0.1760713 α      in ANC's #13, #10, #6, ...

........................................................................
.............................. CYCLE   38 ..............................
........................................................................

 iter      E             dE          RMSdq      gap      omega  full diag
   1   -107.3584869 -0.107358E+03  0.638E-02    1.55       0.0  T
   2   -107.3584897 -0.284111E-05  0.382E-02    1.55       1.0  T
   3   -107.3584784  0.113918E-04  0.276E-02    1.55       1.0  T
   4   -107.3584926 -0.142890E-04  0.522E-03    1.55       2.3  T
   5   -107.3584931 -0.472898E-06  0.375E-03    1.55       3.2  T
   6   -107.3584938 -0.715560E-06  0.131E-03    1.55       9.1  T
   7   -107.3584938  0.573938E-08  0.995E-04    1.55      12.0  T
   8   -107.3584938 -0.195232E-07  0.518E-04    1.55      23.1  T
     SCC iter.                  ...        0 min,  0.047 sec
     gradient                   ...        0 min,  0.014 sec
 * total energy  :  -105.6954691 Eh     change       -0.4362308E-04 Eh
   gradient norm :     0.0016287 Eh/α   predicted    -0.3447586E-04 ( -20.97%)
   displ. norm   :     0.5184892 α      lambda       -0.4051809E-04
   maximum displ.:     0.2904297 α      in ANC's #13, #10, #6, ...

........................................................................
.............................. CYCLE   39 ..............................
........................................................................

 iter      E             dE          RMSdq      gap      omega  full diag
   1   -107.3562279 -0.107356E+03  0.112E-01    1.55       0.0  T
   2   -107.3562372 -0.928080E-05  0.668E-02    1.55       1.0  T
   3   -107.3562160  0.212348E-04  0.463E-02    1.56       1.0  T
   4   -107.3562469 -0.309660E-04  0.877E-03    1.55       1.4  T
   5   -107.3562477 -0.812865E-06  0.678E-03    1.55       1.8  T
   6   -107.3562500 -0.229220E-05  0.281E-03    1.55       4.3  T
   7   -107.3562500  0.685438E-07  0.220E-03    1.55       5.4  T
   8   -107.3562501 -0.128405E-06  0.967E-04    1.55      12.4  T
   9   -107.3562501 -0.357065E-08  0.653E-04    1.55      18.3  T
     SCC iter.                  ...        0 min,  0.057 sec
     gradient                   ...        0 min,  0.014 sec
 * total energy  :  -105.6954785 Eh     change       -0.9355101E-05 Eh
   gradient norm :     0.0048000 Eh/α   predicted    -0.2268145E-04 ( 142.45%)
   displ. norm   :     0.0823397 α      lambda       -0.6610493E-04
   maximum displ.:     0.0337167 α      in ANC's #11, #10, #20, ...

........................................................................
.............................. CYCLE   40 ..............................
........................................................................

 iter      E             dE          RMSdq      gap      omega  full diag
   1   -107.3591847 -0.107359E+03  0.210E-02    1.55       0.0  T
   2   -107.3591850 -0.349425E-06  0.122E-02    1.55       1.0  T
   3   -107.3591839  0.112130E-05  0.690E-03    1.55       1.7  T
   4   -107.3591850 -0.105926E-05  0.293E-03    1.55       4.1  T
   5   -107.3591853 -0.354659E-06  0.683E-04    1.55      17.5  T
   6   -107.3591853 -0.947158E-08  0.494E-04    1.55      24.2  T
     SCC iter.                  ...        0 min,  0.037 sec
     gradient                   ...        0 min,  0.012 sec
 * total energy  :  -105.6955128 Eh     change       -0.3431887E-04 Eh
   gradient norm :     0.0023029 Eh/α   predicted    -0.3327640E-04 (  -3.04%)
   displ. norm   :     0.0517850 α      lambda       -0.1905657E-04
   maximum displ.:     0.0253115 α      in ANC's #10, #13, #1, ...

........................................................................
.............................. CYCLE   41 ..............................
........................................................................

 iter      E             dE          RMSdq      gap      omega  full diag
   1   -107.3597382 -0.107360E+03  0.113E-02    1.55       0.0  T
   2   -107.3597381  0.107926E-06  0.730E-03    1.55       1.6  T
   3   -107.3597370  0.106009E-05  0.668E-03    1.55       1.8  T
   4   -107.3597386 -0.159323E-05  0.101E-03    1.55      11.8  T
   5   -107.3597387 -0.106835E-07  0.407E-04    1.55      29.4  T
   6   -107.3597387 -0.529396E-08  0.202E-04    1.55      59.2  T
     SCC iter.                  ...        0 min,  0.036 sec
     gradient                   ...        0 min,  0.012 sec
 * total energy  :  -105.6955284 Eh     change       -0.1565268E-04 Eh
   gradient norm :     0.0014814 Eh/α   predicted    -0.9558362E-05 ( -38.93%)
   displ. norm   :     0.3364766 α      lambda       -0.4947361E-04
   maximum displ.:     0.1555253 α      in ANC's #10, #13, #1, ...

........................................................................
.............................. CYCLE   42 ..............................
........................................................................

 iter      E             dE          RMSdq      gap      omega  full diag
   1   -107.3596769 -0.107360E+03  0.698E-02    1.56       0.0  T
   2   -107.3596777 -0.774277E-06  0.421E-02    1.55       1.0  T
   3   -107.3596585  0.191520E-04  0.321E-02    1.56       1.0  T
   4   -107.3596815 -0.229441E-04  0.610E-03    1.55       2.0  T
   5   -107.3596831 -0.163030E-05  0.405E-03    1.55       3.0  T
   6   -107.3596836 -0.543942E-06  0.218E-03    1.55       5.5  T
   7   -107.3596836  0.844078E-08  0.146E-03    1.55       8.2  T
   8   -107.3596837 -0.502015E-07  0.682E-04    1.55      17.5  T
   9   -107.3596837 -0.124729E-09  0.426E-04    1.55      28.0  T
     SCC iter.                  ...        0 min,  0.052 sec
     gradient                   ...        0 min,  0.013 sec
 * total energy  :  -105.6955721 Eh     change       -0.4363212E-04 Eh
   gradient norm :     0.0030635 Eh/α   predicted    -0.2598376E-04 ( -40.45%)
   displ. norm   :     0.2450782 α      lambda       -0.3548793E-04
   maximum displ.:     0.1186475 α      in ANC's #10, #13, #1, ...
 * RMSD in coord.:     0.5172993 α      energy gain  -0.1388578E-02 Eh

generating ANC from model Hessian ...
Using Lindh-Hessian (1995)
 Shifting diagonal of input Hessian by   9.973870358940673E-003
 Lowest  eigenvalues of input Hessian
    0.000000    0.000000    0.000000    0.000000    0.000000    0.000000
    0.010000    0.010074    0.010120    0.010303    0.010435    0.010539
    0.010595    0.010652    0.010731    0.010799    0.010903    0.011006
 Highest eigenvalues
    2.003270    2.004773    2.006096    2.007677    2.401065    2.412623
 

........................................................................
.............................. CYCLE   43 ..............................
........................................................................

 iter      E             dE          RMSdq      gap      omega  full diag
   1   -107.3594662 -0.107359E+03  0.515E-02    1.56       0.0  T
   2   -107.3594675 -0.136993E-05  0.310E-02    1.55       1.0  T
   3   -107.3594606  0.690660E-05  0.221E-02    1.56       1.0  T
   4   -107.3594695 -0.889459E-05  0.308E-03    1.55       3.9  T
   5   -107.3594695 -0.130393E-07  0.321E-03    1.56       3.7  T
   6   -107.3594701 -0.543023E-06  0.116E-03    1.55      10.3  T
   7   -107.3594701  0.145505E-09  0.807E-04    1.55      14.8  T
   8   -107.3594701 -0.121794E-07  0.415E-04    1.55      28.8  T
     SCC iter.                  ...        0 min,  0.045 sec
     gradient                   ...        0 min,  0.014 sec
 * total energy  :  -105.6956012 Eh     change       -0.2909340E-04 Eh
   gradient norm :     0.0032309 Eh/α   predicted     0.0000000E+00 (-100.00%)
   displ. norm   :     0.0336140 α      lambda       -0.2834805E-04
   maximum displ.:     0.0129837 α      in ANC's #18, #26, #20, ...

........................................................................
.............................. CYCLE   44 ..............................
........................................................................

 iter      E             dE          RMSdq      gap      omega  full diag
   1   -107.3598203 -0.107360E+03  0.147E-02    1.56       0.0  T
   2   -107.3598202  0.202038E-07  0.879E-03    1.56       1.4  T
   3   -107.3598194  0.837968E-06  0.718E-03    1.56       1.7  T
   4   -107.3598210 -0.155811E-05  0.291E-03    1.56       4.1  T
   5   -107.3598211 -0.118428E-06  0.120E-03    1.56       9.9  T
   6   -107.3598211 -0.105955E-07  0.884E-04    1.56      13.5  T
   7   -107.3598211 -0.504384E-08  0.527E-04    1.56      22.7  T
     SCC iter.                  ...        0 min,  0.050 sec
     gradient                   ...        0 min,  0.014 sec
 * total energy  :  -105.6956200 Eh     change       -0.1879031E-04 Eh
   gradient norm :     0.0015122 Eh/α   predicted    -0.1531377E-04 ( -18.50%)
   displ. norm   :     0.1446476 α      lambda       -0.6050428E-04
   maximum displ.:     0.0473825 α      in ANC's #16, #18, #2, ...

........................................................................
.............................. CYCLE   45 ..............................
........................................................................

 iter      E             dE          RMSdq      gap      omega  full diag
   1   -107.3604550 -0.107360E+03  0.644E-02    1.54       0.0  T
   2   -107.3604565 -0.153809E-05  0.356E-02    1.53       1.0  T
   3   -107.3604426  0.139363E-04  0.254E-02    1.53       1.0  T
   4   -107.3604561 -0.135831E-04  0.154E-02    1.54       1.0  T
   5   -107.3604646 -0.843342E-05  0.526E-03    1.53       2.3  T
   6   -107.3604649 -0.345162E-06  0.376E-03    1.54       3.2  T
   7   -107.3604649 -0.262817E-07  0.238E-03    1.53       5.0  T
   8   -107.3604650 -0.104018E-06  0.106E-03    1.53      11.3  T
   9   -107.3604651 -0.139460E-07  0.592E-04    1.54      20.2  T
  10   -107.3604651 -0.427789E-08  0.396E-04    1.53      30.2  T
     SCC iter.                  ...        0 min,  0.072 sec
     gradient                   ...        0 min,  0.014 sec
 * total energy  :  -105.6955492 Eh     change        0.7076904E-04 Eh
   gradient norm :     0.0078106 Eh/α   predicted    -0.3054694E-04 (-143.16%)
   displ. norm   :     0.0348778 α      lambda       -0.1275708E-03
   maximum displ.:     0.0142198 α      in ANC's #34, #19, #16, ...

........................................................................
.............................. CYCLE   46 ..............................
........................................................................

 iter      E             dE          RMSdq      gap      omega  full diag
   1   -107.3603215 -0.107360E+03  0.311E-02    1.54       0.0  T
   2   -107.3603214  0.150404E-06  0.175E-02    1.54       1.0  T
   3   -107.3603187  0.264662E-05  0.139E-02    1.54       1.0  T
   4   -107.3603230 -0.421780E-05  0.803E-03    1.54       1.5  T
   5   -107.3603250 -0.204355E-05  0.297E-03    1.54       4.0  T
   6   -107.3603251 -0.845200E-07  0.237E-03    1.54       5.0  T
   7   -107.3603251 -0.151942E-07  0.156E-03    1.54       7.6  T
   8   -107.3603252 -0.571944E-07  0.699E-04    1.54      17.1  T
   9   -107.3603252 -0.754780E-08  0.320E-04    1.54      37.3  T
     SCC iter.                  ...        0 min,  0.056 sec
     gradient                   ...        0 min,  0.014 sec
 * total energy  :  -105.6956362 Eh     change       -0.8696547E-04 Eh
   gradient norm :     0.0035415 Eh/α   predicted    -0.6386761E-04 ( -26.56%)
   displ. norm   :     0.0335363 α      lambda       -0.4446161E-04
   maximum displ.:     0.0101114 α      in ANC's #17, #2, #52, ...

........................................................................
.............................. CYCLE   47 ..............................
........................................................................

 iter      E             dE          RMSdq      gap      omega  full diag
   1   -107.3597950 -0.107360E+03  0.219E-02    1.55       0.0  T
   2   -107.3597956 -0.545450E-06  0.121E-02    1.55       1.0  T
   3   -107.3597944  0.123659E-05  0.842E-03    1.55       1.4  T
   4   -107.3597958 -0.143785E-05  0.525E-03    1.55       2.3  T
   5   -107.3597965 -0.714137E-06  0.181E-03    1.55       6.6  T
   6   -107.3597965 -0.367564E-07  0.122E-03    1.55       9.8  T
   7   -107.3597966 -0.749246E-08  0.764E-04    1.55      15.6  T
   8   -107.3597966 -0.676762E-08  0.419E-04    1.55      28.6  T
     SCC iter.                  ...        0 min,  0.048 sec
     gradient                   ...        0 min,  0.013 sec
 * total energy  :  -105.6956539 Eh     change       -0.1774587E-04 Eh
   gradient norm :     0.0014827 Eh/α   predicted    -0.2225608E-04 (  25.42%)
   displ. norm   :     0.0875090 α      lambda       -0.3787436E-04
   maximum displ.:     0.0340566 α      in ANC's #18, #26, #15, ...

........................................................................
.............................. CYCLE   48 ..............................
........................................................................

 iter      E             dE          RMSdq      gap      omega  full diag
   1   -107.3593132 -0.107359E+03  0.438E-02    1.55       0.0  T
   2   -107.3593134 -0.267173E-06  0.238E-02    1.55       1.0  T
   3   -107.3593116  0.183072E-05  0.180E-02    1.55       1.0  T
   4   -107.3593140 -0.237491E-05  0.104E-02    1.55       1.1  T
   5   -107.3593175 -0.355620E-05  0.409E-03    1.55       2.9  T
   6   -107.3593178 -0.267179E-06  0.292E-03    1.55       4.1  T
   7   -107.3593179 -0.599454E-07  0.141E-03    1.55       8.5  T
   8   -107.3593179 -0.151091E-07  0.595E-04    1.55      20.1  T
   9   -107.3593179 -0.133186E-07  0.259E-04    1.55      46.2  T
     SCC iter.                  ...        0 min,  0.054 sec
     gradient                   ...        0 min,  0.018 sec
 * total energy  :  -105.6956369 Eh     change        0.1701819E-04 Eh
   gradient norm :     0.0038753 Eh/α   predicted    -0.1900267E-04 (-211.66%)
   displ. norm   :     0.0301802 α      lambda       -0.5192820E-04
   maximum displ.:     0.0113514 α      in ANC's #23, #2, #34, ...

........................................................................
.............................. CYCLE   49 ..............................
........................................................................

 iter      E             dE          RMSdq      gap      omega  full diag
   1   -107.3596970 -0.107360E+03  0.196E-02    1.55       0.0  T
[...]
        96        2.0000           -0.3302585              -8.9868
        97        2.0000           -0.3295645              -8.9679
        98        2.0000           -0.3245922              -8.8326 (HOMO)
        99                         -0.2639263              -7.1818 (LUMO)
       100                         -0.2504288              -6.8145
       101                         -0.2479779              -6.7478
       102                         -0.2444044              -6.6506
       103                         -0.2387716              -6.4973
       104                         -0.2350549              -6.3962
       105                         -0.2347282              -6.3873
       106                         -0.2314107              -6.2970
       107                         -0.2310935              -6.2884
       108                         -0.2007820              -5.4636
       109                         -0.1988642              -5.4114
       ...                                ...                  ...
       199                          3.3725437              91.7716
      -------------------------------------------------------------
                  HL-Gap            0.0606659 Eh            1.6508 eV
             Fermi-level           -0.2942593 Eh           -8.0072 eV

     #   Z          covCN         q      C6AA      α(0)
     1  15 P        4.317    -0.087   164.166    23.016
     2  15 P        4.346    -0.081   163.882    22.996
     3   6 C        3.750    -0.023    21.041     6.542
     4   6 C        3.751    -0.028    21.141     6.557
     5   1 H        0.925     0.047     2.352     2.398
     6   1 H        0.925     0.044     2.396     2.420
     7   1 H        0.927     0.062     2.174     2.306
     8   1 H        0.926     0.084     1.936     2.176
     9   6 C        3.944     0.058    19.546     6.283
    10   6 C        3.993     0.057    19.544     6.281
    11   1 H        0.922     0.001     3.046     2.730
    12   1 H        0.922     0.006     2.965     2.693
    13   1 H        0.923     0.011     2.871     2.650
    14   1 H        0.923     0.010     2.884     2.656
    15   7 N        2.787    -0.176    24.799     7.396
    16  25 Mn       4.238    -0.476    62.075    19.830
    17   6 C        1.789     0.205    26.367     8.299
    18   6 C        1.705     0.200    26.631     8.356
    19   8 O        0.856    -0.227    18.517     5.769
    20   8 O        0.856    -0.224    18.459     5.760
    21   6 C        2.919     0.032    27.286     8.566
    22   6 C        2.969    -0.025    28.613     8.774
    23   6 C        3.035    -0.014    28.334     8.731
    24   6 C        2.919    -0.028    28.699     8.785
    25   6 C        2.918    -0.023    28.582     8.767
    26   6 C        2.920    -0.024    28.615     8.772
    27   1 H        0.926     0.041     2.438     2.442
    28   1 H        0.925     0.059     2.208     2.324
    29   1 H        0.926     0.037     2.485     2.465
    30   1 H        0.926     0.043     2.410     2.428
    31   1 H        0.926     0.039     2.462     2.454
    32   6 C        2.919     0.036    27.188     8.550
    33   6 C        2.978    -0.024    28.596     8.772
    34   6 C        3.008    -0.008    28.197     8.710
    35   6 C        2.919    -0.027    28.669     8.780
    36   6 C        2.918    -0.026    28.650     8.777
    37   6 C        2.920    -0.025    28.619     8.773
    38   1 H        0.925     0.041     2.442     2.444
    39   1 H        0.925     0.061     2.187     2.313
    40   1 H        0.926     0.036     2.496     2.471
    41   1 H        0.926     0.035     2.514     2.479
    42   1 H        0.926     0.037     2.496     2.470
    43   6 C        2.920     0.030    27.324     8.572
    44   6 C        3.004    -0.016    28.396     8.741
    45   6 C        2.988    -0.022    28.550     8.765
    46   6 C        2.919    -0.024    28.600     8.770
    47   6 C        2.919    -0.027    28.681     8.782
    48   6 C        2.920    -0.024    28.609     8.771
    49   1 H        0.925     0.065     2.137     2.286
    50   1 H        0.925     0.036     2.497     2.471
    51   1 H        0.926     0.044     2.399     2.422
    52   1 H        0.926     0.037     2.486     2.466
    53   1 H        0.926     0.039     2.459     2.452
    54   6 C        2.918     0.038    27.141     8.543
    55   6 C        2.968    -0.020    28.497     8.756
    56   6 C        3.026    -0.015    28.363     8.736
    57   6 C        2.919    -0.029    28.717     8.788
    58   6 C        2.918    -0.024    28.594     8.769
    59   6 C        2.920    -0.026    28.644     8.777
    60   1 H        0.926     0.035     2.514     2.479
    61   1 H        0.925     0.049     2.338     2.391
    62   1 H        0.926     0.032     2.561     2.502
    63   1 H        0.926     0.039     2.463     2.454
    64   1 H        0.926     0.035     2.518     2.482
    65   6 C        3.623     0.052    20.134     6.468
    66   8 O        1.654    -0.446    21.761     6.297
    67   1 H        0.804     0.309     0.696     1.310
    68   1 H        0.924     0.030     2.590     2.517
    69   1 H        0.925     0.043     2.409     2.427
    70   1 H        0.924     0.022     2.708     2.573

 Mol. C6AA /au·bohr⁶  :      67765.131757
 Mol. C8AA /au·bohr⁸  :    1893371.659797
 Mol. α(0) /au        :        426.928439


Wiberg/Mayer (AO) data.
largest (>0.10) Wiberg bond orders for each atom

 ---------------------------------------------------------------------------
     #   Z sym  total        # sym  WBO       # sym  WBO       # sym  WBO
 ---------------------------------------------------------------------------
     1  15 P    4.614 --     3 C    1.012    43 C    0.999    54 C    0.996
                            16 Mn   0.916    15 N    0.108
     2  15 P    4.581 --     4 C    1.015    21 C    1.009    32 C    0.986
                            16 Mn   0.890
     3   6 C    3.991 --     1 P    1.012     9 C    0.980     5 H    0.938
                             7 H    0.932
     4   6 C    3.996 --     2 P    1.015    10 C    0.977     6 H    0.939
                             8 H    0.924
     5   1 H    0.997 --     3 C    0.938
     6   1 H    0.997 --     4 C    0.939
     7   1 H    0.996 --     3 C    0.932
     8   1 H    0.992 --     4 C    0.924
     9   6 C    3.992 --    15 N    1.000     3 C    0.980    13 H    0.957
                            11 H    0.956
    10   6 C    3.992 --    15 N    0.999     4 C    0.977    14 H    0.960
                            12 H    0.955
    11   1 H    0.999 --     9 C    0.956
    12   1 H    0.998 --    10 C    0.955
    13   1 H    0.997 --     9 C    0.957
    14   1 H    0.997 --    10 C    0.960
    15   7 N    3.374 --    16 Mn   1.025     9 C    1.000    10 C    0.999
                             1 P    0.108
    16  25 Mn   6.910 --    18 C    1.474    17 C    1.391    15 N    1.025
                             1 P    0.916     2 P    0.890    20 O    0.336
                            19 O    0.324
    17   6 C    3.694 --    19 O    2.023    16 Mn   1.391
    18   6 C    3.707 --    20 O    2.016    16 Mn   1.474
    19   8 O    2.435 --    17 C    2.023    16 Mn   0.324
    20   8 O    2.436 --    18 C    2.016    16 Mn   0.336
    21   6 C    3.984 --    22 C    1.383    23 C    1.373     2 P    1.009
                            26 C    0.104
    22   6 C    3.991 --    24 C    1.443    21 C    1.383    27 H    0.960
                            25 C    0.108
    23   6 C    3.990 --    25 C    1.453    21 C    1.373    28 H    0.941
                            24 C    0.109
    24   6 C    3.990 --    22 C    1.443    26 C    1.439    29 H    0.969
                            23 C    0.109
    25   6 C    3.991 --    23 C    1.453    26 C    1.431    30 H    0.969
                            22 C    0.108
    26   6 C    3.982 --    24 C    1.439    25 C    1.431    31 H    0.971
                            21 C    0.104
    27   1 H    0.998 --    22 C    0.960
    28   1 H    0.996 --    23 C    0.941
    29   1 H    0.998 --    24 C    0.969
    30   1 H    0.998 --    25 C    0.969
    31   1 H    0.998 --    26 C    0.971
    32   6 C    3.981 --    34 C    1.384    33 C    1.379     2 P    0.986
                            37 C    0.105
    33   6 C    3.992 --    35 C    1.450    32 C    1.379    38 H    0.958
                            36 C    0.110
    34   6 C    3.990 --    36 C    1.443    32 C    1.384    39 H    0.927
                            35 C    0.108
    35   6 C    3.990 --    33 C    1.450    37 C    1.432    40 H    0.969
                            34 C    0.108
    36   6 C    3.991 --    34 C    1.443    37 C    1.439    41 H    0.970
                            33 C    0.110
    37   6 C    3.987 --    36 C    1.439    35 C    1.432    42 H    0.971
                            32 C    0.105
    38   1 H    0.998 --    33 C    0.958
    39   1 H    0.996 --    34 C    0.927
    40   1 H    0.998 --    35 C    0.969
    41   1 H    0.998 --    36 C    0.970
    42   1 H    0.998 --    37 C    0.971
    43   6 C    3.985 --    44 C    1.390    45 C    1.377     1 P    0.999
                            48 C    0.105
    44   6 C    3.989 --    46 C    1.439    43 C    1.390    49 H    0.937
                            47 C    0.107
    45   6 C    3.991 --    47 C    1.454    43 C    1.377    50 H    0.960
                            46 C    0.111
    46   6 C    3.991 --    48 C    1.443    44 C    1.439    51 H    0.969
                            45 C    0.111
    47   6 C    3.990 --    45 C    1.454    48 C    1.429    52 H    0.969
                            44 C    0.107
    48   6 C    3.986 --    46 C    1.443    47 C    1.429    53 H    0.971
                            43 C    0.105
    49   1 H    0.995 --    44 C    0.937
    50   1 H    0.999 --    45 C    0.960
    51   1 H    0.997 --    46 C    0.969
    52   1 H    0.998 --    47 C    0.969
    53   1 H    0.998 --    48 C    0.971
    54   6 C    3.984 --    55 C    1.385    56 C    1.364     1 P    0.996
                            59 C    0.103
    55   6 C    3.991 --    57 C    1.440    54 C    1.385    60 H    0.957
                            58 C    0.106
    56   6 C    3.991 --    58 C    1.458    54 C    1.364    61 H    0.952
                            57 C    0.109
    57   6 C    3.991 --    59 C    1.441    55 C    1.440    62 H    0.970
                            56 C    0.109
    58   6 C    3.990 --    56 C    1.458    59 C    1.427    63 H    0.969
                            55 C    0.106
    59   6 C    3.983 --    57 C    1.441    58 C    1.427    64 H    0.971
                            54 C    0.103
    60   1 H    0.999 --    55 C    0.957
    61   1 H    0.997 --    56 C    0.952
    62   1 H    0.998 --    57 C    0.970
    63   1 H    0.998 --    58 C    0.969
    64   1 H    0.998 --    59 C    0.971
    65   6 C    3.959 --    66 O    1.011    69 H    0.984    68 H    0.980
                            70 H    0.976
    66   8 O    1.951 --    65 C    1.011    67 H    0.864
    67   1 H    0.905 --    66 O    0.864
    68   1 H    0.999 --    65 C    0.980
    69   1 H    0.998 --    65 C    0.984
    70   1 H    0.999 --    65 C    0.976
 ---------------------------------------------------------------------------

Topologies differ in total number of bonds
Writing topology from bond orders to xtbtopo.mol

molecular dipole:
                 x           y           z       tot (Debye)
 q only:       -0.158      -0.555      -0.486
   full:       -0.802      -1.699      -0.307       4.839
molecular quadrupole (traceless):
                xx          xy          yy          xz          yz          zz
 q only:       17.425     -11.093      -0.183      12.114      -0.515     -17.242
  q+dip:       18.638      -8.288       1.146      14.689      -1.511     -19.784
   full:       18.954      -9.870       0.275      12.088      -1.837     -19.229

           -------------------------------------------------
          |                Geometry Summary                 |
           -------------------------------------------------

      molecular mass/u    :      583.4774028
   center of mass at/Å    :        0.0898779       0.1272911      -0.0692666
  moments of inertia/u·Å² :        0.3891671E+04   0.6537656E+04   0.8119514E+04
rotational constants/cm⁻¹ :        0.4331721E-02   0.2578544E-02   0.2076187E-02

 * 74 selected distances

     #   Z          #   Z                                           value/Å
     1  15 P        3   6 C                                       1.8321728
     2  15 P        4   6 C                                       1.8284761
     3   6 C        5   1 H                                       1.0930209
     4   6 C        6   1 H                                       1.0935574
     3   6 C        7   1 H                                       1.0965056
     4   6 C        8   1 H                                       1.0945140
     3   6 C        9   6 C                                       1.5277649
     4   6 C       10   6 C                                       1.5263278
     9   6 C       11   1 H                                       1.1051082
    10   6 C       12   1 H                                       1.1060422
     9   6 C       13   1 H                                       1.1043391
    10   6 C       14   1 H                                       1.1021642
     9   6 C       15   7 N                                       1.4587142
    10   6 C       15   7 N                                       1.4610364
     1  15 P       16  25 Mn                                      2.1937817
     2  15 P       16  25 Mn                                      2.2038846 (max)
    15   7 N       16  25 Mn                                      1.8448024
    16  25 Mn      17   6 C                                       1.7693253
    16  25 Mn      18   6 C                                       1.7750449
    17   6 C       19   8 O                                       1.1600064
    18   6 C       20   8 O                                       1.1629391
     2  15 P       21   6 C                                       1.8156129
    21   6 C       22   6 C                                       1.3907095
    21   6 C       23   6 C                                       1.3929534
    22   6 C       24   6 C                                       1.3842293
    23   6 C       25   6 C                                       1.3817007
    24   6 C       26   6 C                                       1.3849529
    25   6 C       26   6 C                                       1.3863332
    22   6 C       27   1 H                                       1.0808842
    23   6 C       28   1 H                                       1.0840978
    24   6 C       29   1 H                                       1.0805947
    25   6 C       30   1 H                                       1.0798607
    26   6 C       31   1 H                                       1.0800572
     2  15 P       32   6 C                                       1.8251453
    32   6 C       33   6 C                                       1.3911676
    32   6 C       34   6 C                                       1.3906915
    33   6 C       35   6 C                                       1.3827564
    34   6 C       36   6 C                                       1.3827055
    35   6 C       37   6 C                                       1.3861806
    36   6 C       37   6 C                                       1.3851190
    33   6 C       38   1 H                                       1.0815321
    34   6 C       39   1 H                                       1.0870814
    35   6 C       40   1 H                                       1.0804672
    36   6 C       41   1 H                                       1.0806293
    37   6 C       42   1 H                                       1.0801718
     1  15 P       43   6 C                                       1.8189261
    43   6 C       44   6 C                                       1.3889205
    43   6 C       45   6 C                                       1.3917078
    44   6 C       46   6 C                                       1.3840631
    45   6 C       47   6 C                                       1.3818913
    46   6 C       48   6 C                                       1.3849398
    47   6 C       48   6 C                                       1.3868553
    44   6 C       49   1 H                                       1.0840752
    45   6 C       50   1 H                                       1.0820757
    46   6 C       51   1 H                                       1.0799361
    47   6 C       52   1 H                                       1.0804557
    48   6 C       53   1 H                                       1.0801393
     1  15 P       54   6 C                                       1.8218555
    54   6 C       55   6 C                                       1.3903403
    54   6 C       56   6 C                                       1.3950783
    55   6 C       57   6 C                                       1.3843611
    56   6 C       58   6 C                                       1.3807653
    57   6 C       59   6 C                                       1.3843397
    58   6 C       59   6 C                                       1.3866783
    55   6 C       60   1 H                                       1.0807937
    56   6 C       61   1 H                                       1.0827811
    57   6 C       62   1 H                                       1.0809797
    58   6 C       63   1 H                                       1.0800280
    59   6 C       64   1 H                                       1.0801451
    65   6 C       66   8 O                                       1.4061784
    66   8 O       67   1 H                                       0.9708272 (min)
    65   6 C       68   1 H                                       1.0941524
    65   6 C       69   1 H                                       1.0895719
    65   6 C       70   1 H                                       1.0969398

 * 9 distinct bonds (by element types)

   Z      Z             #   av. dist./Å        max./Å        min./Å
   1 H    6 C          31     1.0871839     1.1060422     1.0798607
   6 C    6 C          26     1.3974436     1.5277649     1.3807653
   6 C    7 N           2     1.4598753     1.4610364     1.4587142
   1 H    8 O           1     0.9708272     0.9708272     0.9708272
   6 C    8 O           3     1.2430413     1.4061784     1.1600064
   6 C   15 P           6     1.8236981     1.8321728     1.8156129
   6 C   25 Mn          2     1.7721851     1.7750449     1.7693253
   7 N   25 Mn          1     1.8448024     1.8448024     1.8448024
  15 P   25 Mn          2     2.1988332     2.2038846     2.1937817


optimized geometry written to: xtbopt.xyz


           -------------------------------------------------
          | TOTAL ENERGY             -105.701810060803 Eh   |
          | GRADIENT NORM               0.000848860369 Eh/α |
          | HOMO-LUMO GAP               1.650802050849 eV   |
           -------------------------------------------------

------------------------------------------------------------------------
 * finished run on 2026/04/03 at 20:55:19.159     
------------------------------------------------------------------------
 total:
 * wall-time:     0 d,  0 h,  0 min, 13.328 sec
 *  cpu-time:     0 d,  0 h,  2 min,  1.219 sec
 * ratio c/w:     9.095 speedup
 SCF:
 * wall-time:     0 d,  0 h,  0 min,  0.165 sec
 *  cpu-time:     0 d,  0 h,  0 min,  1.172 sec
 * ratio c/w:     7.102 speedup
 ANC optimizer:
 * wall-time:     0 d,  0 h,  0 min, 13.099 sec
 *  cpu-time:     0 d,  0 h,  1 min, 59.844 sec
 * ratio c/w:     9.149 speedup

