70
 energy: -105.701810060803 gnorm: 0.000848860369 xtb: 6.7.0 (08769fc)
P           -2.03063754893605        0.85574215228858       -0.31507062795883
P            1.78162717024761       -0.87642809345533        0.72899638066247
C           -3.06350084021116        0.20951869428535        1.05330253723216
C            1.27421586034922       -1.83629388857633        2.20022564478923
H           -4.07511854185705       -0.06709643613286        0.74539313922666
H            1.80533394832427       -2.78684708177074        2.30136766960706
H           -3.12357001355865        1.02359302232787        1.78542210964593
H            1.43644947086082       -1.21236680700083        3.08473444541569
C           -2.27297417010011       -0.96560314273508        1.62620857478901
C           -0.22299405735384       -2.03574207873141        1.98054611026504
H           -2.66536508888478       -1.91701402723234        1.22357905249557
H           -0.38568908562448       -2.93300009642509        1.35461672179148
H           -2.42261452028419       -1.01012771182349        2.71945601330280
H           -0.70392176505457       -2.23250006495287        2.95253402956863
N           -0.84529004752148       -0.87968047821148        1.33953430698953
Mn           0.01949002093344        0.37610526082470        0.30104838069630
C            0.61847955668976        0.74187047069825       -1.32312485343794
C            0.61191856197688        1.89836562074883        0.99569616722175
O            0.99662595502437        0.93037898983940       -2.40344169696188
O            1.01388979794149        2.86940614792409        1.49361841999722
C            3.44253298070940       -0.24835423232994        1.10763148091099
C            4.22448741127789       -0.70493180475490        2.16316768773626
C            3.91879621816232        0.76843686333497        0.28323591622433
C            5.47455599550563       -0.15195740186318        2.38142952138276
C            5.16973706311735        1.31249419845028        0.50288363607299
C            5.94864185694983        0.85156892939306        1.55301442088890
H            3.86014568059087       -1.48520543919460        2.81642001378305
H            3.28394389752306        1.12856756376648       -0.51834767431376
H            6.08037269522686       -0.50508312683392        3.20360536521352
H            5.53631181927616        2.10100722862319       -0.13740471090857
H            6.92416701060741        1.27966775183434        1.73079342270031
C            2.12821860198694       -2.21495378181452       -0.46238023193005
C            3.31055418501587       -2.94691301277987       -0.42157369886289
C            1.14610349720856       -2.54167958387177       -1.39120889749784
C            3.50108912585269       -3.99457531869263       -1.30368198265358
C            1.33978542927186       -3.59193963115341       -2.26945443760551
C            2.51788533497622       -4.31905181028138       -2.22537697737525
H            4.07941778581629       -2.68837710006763        0.29377192425415
H            0.22918325622083       -1.95892743236684       -1.42866372246613
H            4.42093730983598       -4.56062372426287       -1.27405482500370
H            0.57440249131480       -3.84006307733983       -2.99083032473857
H            2.67306084326287       -5.13770856876977       -2.91275799418426
C           -2.76782162684691        2.48654193670005       -0.63994457865740
C           -1.95987981142322        3.61532844231167       -0.59335143613144
C           -4.12237011216553        2.61059924730904       -0.93432265731908
C           -2.50480251858147        4.86530103478363       -0.83053916792628
C           -4.66207034527466        3.86134469613309       -1.16666457802444
C           -3.85490571432641        4.98787095823247       -1.11383395503391
H           -0.90545803573791        3.49224395221807       -0.37366127562732
H           -4.74509527764411        1.72723262551180       -0.98690081563130
H           -1.87643856654857        5.74288222266612       -0.79487627384458
H           -5.71408298513550        3.96094731369922       -1.39190443688281
H           -4.28148264629561        5.96290453482257       -1.29833974460487
C           -2.57718705765464       -0.02747291735665       -1.81185772593211
C           -3.17769290536922       -1.28134070556734       -1.79592071409205
C           -2.27116109015996        0.57069358963053       -3.03447293780938
C           -3.48582822623524       -1.91705078028175       -2.98645863239047
C           -2.58062900778858       -0.06795585754063       -4.21890063597797
C           -3.19014396566972       -1.31329536992911       -4.19660169599564
H           -3.40801151595424       -1.76756733096768       -0.85855646284950
H           -1.78778157671143        1.53957747474478       -3.03926972940587
H           -3.95721231463874       -2.88965643704984       -2.96769114111861
H           -2.34353535585070        0.40172671141723       -5.16211063028468
H           -3.43148273800212       -1.81443843939518       -5.12251983649028
C            1.17256206598807        1.48992302468030        4.40748189747840
O            0.15120751338347        0.56552068703272        4.12525407798822
H           -0.13005077524977        0.69371314419613        3.20494661656594
H            0.82048763912703        2.52120518027359        4.30914544291437
H            1.47841221749872        1.31449106398611        5.43842610339125
H            2.03683316044398        1.35181019185015        3.74624285044155
