70
 energy: -105.669529967128 gnorm: 0.057603584487 xtb: 6.7.0 (08769fc)
P           -2.04586872991360        0.81897668439333       -0.26082626563173
P            1.85478519540448       -1.22542244623563        0.69501843922528
C           -2.90739828316423        0.22725851515597        1.26882302794920
C            1.18456395151357       -2.30911039682974        2.05558324031034
H           -4.00393696197387        0.25918392810795        1.18904536450063
H            1.68477927385473       -3.28749196489821        2.07051812826154
H           -2.60691185144462        0.92119017249178        2.06865737437288
H            1.40583265936201       -1.80038927705593        3.00321582873753
C           -2.37424189285129       -1.16941726217826        1.58988965960038
C           -0.32713375300957       -2.44565724298248        1.88287456653722
H           -2.73943410200283       -1.90077362669391        0.84146009874781
H           -0.55994451527020       -3.15595375612795        1.06544880721857
H           -2.77559303285112       -1.49833292934474        2.57041948701803
H           -0.75393417661694       -2.88548576410162        2.80761765362153
N           -0.91626927620074       -1.13892716697878        1.61404752612721
Mn           0.02347936232529       -0.09941117750181       -0.08198606751062
C           -0.39061636218391       -1.36826120254812       -1.24712687592719
C            0.86330583075489        0.89223390048389       -1.31133961942963
O           -0.70278950080249       -2.20995249800113       -1.97863058972777
O            1.39874463911315        1.50953402756219       -2.13616974476060
C            3.24365832040465       -0.30703282043519        1.48158226686075
C            3.08298447578770        0.26428264113139        2.75646572227038
C            4.44551439234831       -0.10171248292611        0.78390017942484
C            4.12224300710121        1.00441299750846        3.32637056753125
C            5.47663643025559        0.64616490909300        1.35726112042620
C            5.32045900007333        1.19663735268993        2.63237592933199
H            2.13247768746597        0.16243499262586        3.29012241818089
H            4.58294377830995       -0.53286789428271       -0.20952170213028
H            3.98724547258202        1.44079556539419        4.31947861131554
H            6.40784322874967        0.79469987194014        0.80441474092805
H            6.12968223386037        1.77772073215418        3.08217920620224
C            2.75375647436513       -2.35507003986325       -0.44364677301439
C            3.58146649548842       -3.37313291592549        0.06024443670093
C            2.67128912364333       -2.17175927906671       -1.83132637782842
C            4.29538710726041       -4.20173394394571       -0.80583362341928
C            3.39079750493645       -2.99922576847685       -2.69922477831376
C            4.19887593135154       -4.01754844274350       -2.18976721767995
H            3.68448567260972       -3.51056226398261        1.13931079181908
H            2.04970796230428       -1.37477737175286       -2.23869588128074
H            4.93370918772570       -4.99087429512993       -0.40034923393015
H            3.31440023934378       -2.84543745314544       -3.77833410163720
H            4.75762100701236       -4.66659693415990       -2.86887243723714
C           -2.34002904729863        2.63096434247997       -0.30090513436625
C           -1.25799725186563        3.52105474244297       -0.34250584666464
C           -3.64961579134986        3.13952795889524       -0.29774776210620
C           -1.48174749545414        4.90122730805327       -0.37090829571954
C           -3.87136452954612        4.51683931835869       -0.31995347716601
C           -2.78615356008853        5.40034801382375       -0.35557704805342
H           -0.23837876389554        3.13375584374719       -0.36176402161471
H           -4.50075772843544        2.45347381817258       -0.29092053994313
H           -0.63137601108858        5.58659851269107       -0.40660602693350
H           -4.89349322913488        4.90385850990177       -0.31555637103140
H           -2.96004608000766        6.47915746921960       -0.37680800146366
C           -3.05341193979178        0.24449729171557       -1.68207056701752
C           -4.20128742032770       -0.54774873107916       -1.55355448495591
C           -2.59267312299200        0.57941198386360       -2.96744040560060
C           -4.88510156537606       -0.99020206559050       -2.69160065085676
C           -3.27938939631339        0.14407297401153       -4.09962864415175
C           -4.42884483049642       -0.64334969125138       -3.96422937217042
H           -4.57130535696255       -0.83271260613794       -0.56734076210735
H           -1.68517921347760        1.17947529287118       -3.07766981683329
H           -5.77766381694139       -1.61085369232739       -2.57886032087671
H           -2.91264421611379        0.41257789500790       -5.09344454191091
H           -4.96320179359663       -0.99037024468196       -4.85206688621239
C            0.19749667226245        1.62903812152108        2.33486125887713
O           -0.05185869967588        0.61123542248334        3.19810926580274
H           -0.52096898207958       -0.28165976277680        2.52111265110398
H           -0.61896396271307        2.37573799897470        2.22555588453161
H            1.14119502807851        2.17409926139476        2.54007013308992
H            0.39522247765923        1.29409517579773        1.23043424458925
70
 energy: -105.679284421840 gnorm: 0.018952737552 xtb: 6.7.0 (08769fc)
P           -2.02705113635041        0.81665013959317       -0.27139114747366
P            1.85349676383819       -1.21011754489836        0.68499588329257
C           -2.89641660699224        0.24146012275336        1.25906383637652
C            1.19206185304175       -2.29652345482443        2.04431416116127
H           -3.98868039680326        0.26439959583154        1.17832420522200
H            1.67807295289785       -3.27759853965156        2.05343710216983
H           -2.60114209141035        0.93013546300574        2.06035715962539
H            1.40341699675098       -1.79323947214935        2.99343924524719
C           -2.35536315051665       -1.15355163655232        1.57649718330103
C           -0.32065057853878       -2.42472383371389        1.87075281412664
H           -2.72911073135424       -1.88519181224267        0.83678426381325
H           -0.55102939907444       -3.14572888041915        1.06647077652721
H           -2.73803871245505       -1.47701682411044        2.56433510748834
H           -0.75178414510194       -2.84249319503337        2.80138790920541
N           -0.89807220325807       -1.12262520721036        1.55926360873060
Mn           0.02401527046721       -0.11242912709845       -0.10377824840133
C           -0.39482279593308       -1.37889977605544       -1.26234445428028
C            0.85867325060658        0.88792673225056       -1.31487118875235
O           -0.71242784713898       -2.21961537212315       -1.99183210144246
O            1.39984837080087        1.50716502556445       -2.13274055443252
C            3.25096138097935       -0.32733972969083        1.48862601548864
C            3.09043153572926        0.25405330701930        2.74945068366596
C            4.44088150034887       -0.11194216875577        0.79116670774802
C            4.11805691005470        0.99500005633971        3.31245641679856
C            5.46164985825844        0.63487451148103        1.35934887042888
C            5.30724522330950        1.18324056820108        2.62427513396000
H            2.15537865026203        0.14499755712331        3.28929465879380
H            4.57066638946882       -0.52974656885214       -0.20069320403614
H            3.98563302473031        1.43025348526394        4.29677699552103
H            6.38341573204295        0.78904038061434        0.81012180992185
H            6.10822139417854        1.76303722140467        3.06886296083998
C            2.76132635181197       -2.34955657382823       -0.43489890279810
C            3.58309582396421       -3.36315116852389        0.06250521515213
C            2.67486466968184       -2.17116559470638       -1.81489924642374
C            4.28565505669680       -4.18808963233878       -0.80105729059434
C            3.38419463168777       -2.99572318090946       -2.67770277075448
C            4.18711548609102       -4.00706287861720       -2.17407844869932
H            3.68611423546140       -3.50168689341097        1.13310308331682
H            2.05075667787448       -1.37916925320808       -2.21635197414516
H            4.91873821617324       -4.97245023721829       -0.40246403259184
H            3.30985148932434       -2.84376108509967       -3.74816384132060
H            4.74136289459468       -4.65023543849922       -2.84825053755066
C           -2.34643125006848        2.62510122379652       -0.30235144537448
C           -1.27267326220672        3.51227955376285       -0.34656289834120
C           -3.64671771082970        3.13243556590790       -0.29843048595588
C           -1.49309147479029        4.88204026283374       -0.37132088920282
C           -3.86336969343195        4.50091549765341       -0.32107936381656
C           -2.78704299537178        5.37815523907664       -0.35482167230866
H           -0.25794348171697        3.12792027983027       -0.36708759289216
H           -4.49072301233118        2.45138049354676       -0.28748637689795
H           -0.65019693298392        5.56280880499777       -0.40555845589230
H           -4.87565669197501        4.88795751175901       -0.31511777057200
H           -2.95876743271220        6.44835414142801       -0.37449384916922
C           -3.06061698672587        0.25237978804857       -1.67685580325279
C           -4.19966936094297       -0.53936182865466       -1.55419212574269
C           -2.59985706769046        0.58141965021051       -2.95458619552908
C           -4.87372876001306       -0.97886987923834       -2.68561222945601
C           -3.27850637652672        0.14671656310158       -4.08001363532933
C           -4.41912196172354       -0.63476416031931       -3.94798273649613
H           -4.56691474036708       -0.83085097962425       -0.57800927778296
H           -1.69390744670485        1.17187861326936       -3.05802905827759
H           -5.75741927565890       -1.59743196851926       -2.57694578599785
H           -2.91422123388472        0.40975286555541       -5.06620219225560
H           -4.94711186968020       -0.98085531130531       -4.82909008797498
C            0.19715895176531        1.62780414899496        2.32557623764120
O           -0.06279745633820        0.61812972957083        3.18087155622001
H           -0.51574236948330       -0.28875794643415        2.50502770475955
H           -0.62036053191819        2.37302867778620        2.24891152320046
H            1.12070911950948        2.17814328328619        2.57899527256584
H            0.38917208860102        1.25764922797451        1.23021213390530
70
 energy: -105.681803439791 gnorm: 0.012996940549 xtb: 6.7.0 (08769fc)
P           -2.01532670610511        0.81556852411840       -0.27752936373764
P            1.84964662025564       -1.20274856076078        0.67896225503724
C           -2.88322230598607        0.25709528185643        1.25395248524995
C            1.19746962596739       -2.28701488612761        2.03636625553092
H           -3.97163316765605        0.27393194791434        1.16425352551223
H            1.67653098041406       -3.26800852356971        2.03397580675641
H           -2.59154035815266        0.94514660021338        2.05388644284132
H            1.40515967610841       -1.78741126561665        2.98574467112814
C           -2.33430041704638       -1.13688511997048        1.55935318629799
C           -0.31444694146684       -2.40697680452899        1.85280507950555
H           -2.72432115650304       -1.86762010671524        0.82924724316302
H           -0.54397869392035       -3.14403170648252        1.06489628725191
H           -2.68480090146459       -1.45593284357650        2.55832647687045
H           -0.75709405615035       -2.78877011451673        2.79116863778383
N           -0.87734236267480       -1.10734594524556        1.50287544445154
Mn           0.01843176685058       -0.12310290346663       -0.11464581134251
C           -0.39951684162710       -1.38358301016137       -1.27717578016799
C            0.87485500043669        0.86859517721552       -1.30733117508208
O           -0.71939715322747       -2.22386794212267       -2.00584680449928
O            1.38956066536817        1.50775192035849       -2.12690801627604
C            3.24497961364806       -0.32950936906327        1.48416609751885
C            3.09169260460613        0.23960571539809        2.74657029506159
C            4.43050036383170       -0.11581178939168        0.78611298386752
C            4.11605873240607        0.97820664233316        3.30738734509633
C            5.45168265417063        0.62158980660282        1.35509512723474
C            5.29937739753237        1.16893589383066        2.61696739769554
H            2.16626058130721        0.12546351378340        3.29234243181347
H            4.55481393010265       -0.53148891493305       -0.20344041257531
H            3.98306070749604        1.41871969133249        4.28439897232461
H            6.36824323583014        0.77820291044692        0.80679186592810
H            6.09546356789778        1.75073892869812        3.05649479000423
C            2.76328516586629       -2.34526286772236       -0.42498345895884
C            3.58508253635383       -3.35158733779214        0.07359043299840
C            2.67163374440894       -2.16768123383454       -1.80095781191033
C            4.28114832073412       -4.17570297572619       -0.78978006977492
C            3.37714290526397       -2.98908028286931       -2.66192668773883
C            4.17890266822450       -3.99753364842968       -2.15911234078907
H            3.69149853816700       -3.48615409196661        1.14058903741119
H            2.04492136501404       -1.37635922831369       -2.19475257697317
H            4.91055667695843       -4.95846087319974       -0.39428137840762
H            3.29999492185931       -2.84067666191225       -3.72802886840218
H            4.72710106787235       -4.64088363448253       -2.83049517931887
C           -2.34917652406452        2.61718714300281       -0.31204134485494
C           -1.27872188747230        3.50186769021710       -0.35555463329706
C           -3.64704333868311        3.11756979222295       -0.30179186596868
C           -1.49888472956797        4.86674173761290       -0.37394627743633
C           -3.86285343548910        4.48218633704513       -0.32086541692098
C           -2.79089578824376        5.35885249669122       -0.35454293482262
H           -0.26702208821480        3.11696480845031       -0.37756490111559
H           -4.48573401082637        2.43626163688794       -0.28588352891153
H           -0.66052621277230        5.54592855067605       -0.40603124567426
H           -4.87106820530294        4.86739576035635       -0.31326546846238
H           -2.96372502823225        6.42420775415451       -0.37092474253770
C           -3.06000624945833        0.24981145022418       -1.66858123900517
C           -4.19780710340900       -0.53678444222934       -1.54725807714113
C           -2.59819950809464        0.58344461633759       -2.94049064072811
C           -4.86848105532164       -0.96892611651482       -2.67764870306332
C           -3.27397449300640        0.15502786458124       -4.06498554344694
C           -4.41198791943066       -0.62400478487775       -3.93567130447570
H           -4.56674870753674       -0.82939186966594       -0.57615749389850
H           -1.69309533415922        1.17123883281632       -3.03375079544472
H           -5.74761164789025       -1.58689690273268       -2.57244892167197
H           -2.90838424645260        0.41488552158173       -5.04648170380185
H           -4.93456806469013       -0.97075304874428       -4.81406495477765
C            0.19045161382998        1.62823900171340        2.33522762174584
O           -0.07328817743937        0.60874179391744        3.17305281080765
H           -0.51482654628327       -0.28794738196314        2.47741215060518
H           -0.63200027742195        2.36581337374466        2.25863158271536
H            1.11142944677311        2.16858517467539        2.59926711323670
H            0.38167852588891        1.25045143321515        1.24489398396600
70
 energy: -105.679737331732 gnorm: 0.042618071144 xtb: 6.7.0 (08769fc)
P           -1.99581112505915        0.81384141563143       -0.28447520017338
P            1.85046069674563       -1.20267372094046        0.68033118824769
C           -2.86573701727264        0.27525260822189        1.24668939832550
C            1.20086044902512       -2.28293363017357        2.03180630993603
H           -3.95111862995817        0.28834902028559        1.14581718640096
H            1.67359156858048       -3.26438547299176        2.01567782867043
H           -2.57943006560169        0.96291888030527        2.04663290912200
H            1.40632670875281       -1.79027997240584        2.98333930747288
C           -2.31380785736102       -1.11794228182785        1.54245022875317
C           -0.31007346940474       -2.39019651757225        1.83506855717301
H           -2.72392436037265       -1.84687299541433        0.82275764377862
H           -0.53882930564675       -3.14414493461921        1.06439721921799
H           -2.62855547810523       -1.43335157561694        2.55261434982562
H           -0.76933035606485       -2.73246242040730        2.77897035007918
N           -0.85685847691125       -1.09236659273492        1.44654377198020
Mn           0.02221539622631       -0.15372669973159       -0.12174884481367
C           -0.41136231224109       -1.38662566796519       -1.30674416063234
C            0.76376346860350        0.91612612744532       -1.32233209756239
O           -0.72743734629890       -2.23471720422629       -2.02773117233698
O            1.43449470925696        1.47264768768048       -2.10227889423082
C            3.23989710145560       -0.33166756182752        1.48136705143967
C            3.09249907745162        0.22623632886370        2.74664925627830
C            4.42068197889171       -0.11862020743327        0.77833355017435
C            4.11613420012664        0.96449293135493        3.30452945555436
C            5.44432669025125        0.61157634666965        1.34704003980738
C            5.29518824195072        1.15731125522263        2.60904014313584
H            2.17493973976129        0.10474792833487        3.29977718913528
H            4.53593052136586       -0.52951883218015       -0.21267455254480
H            3.98625336433562        1.40310094926669        4.28015847431588
H            6.35830973386201        0.76719808605655        0.79872890848194
H            6.09014669745861        1.73853213581827        3.04512940556844
C            2.76585677792553       -2.34156376126123       -0.41364356475839
C            3.58972487156786       -3.34035665700543        0.08843027854293
C            2.66713248804653       -2.16338231636712       -1.78732588754272
C            4.28006942585296       -4.16528330942677       -0.77620468449295
C            3.36872811514272       -2.98376761494546       -2.64822053127607
C            4.17094822148263       -3.99075384002463       -2.14434880011072
H            3.70179894371957       -3.46821876862229        1.15405795017226
H            2.03588406071204       -1.37198672971067       -2.17200584038905
H            4.90924855798380       -4.94616667227691       -0.38257695555694
H            3.28841714022388       -2.83831990567813       -3.71208516067596
H            4.71440713724952       -4.63539979584642       -2.81419571796620
C           -2.34617901336548        2.60680849681202       -0.32476248348143
C           -1.27930198126710        3.49220550954312       -0.36750511425284
C           -3.64577808576021        3.09639658362537       -0.30678138732364
C           -1.50345062887975        4.85412687012007       -0.37873706682437
C           -3.86519155601118        4.45901187316108       -0.32128914814590
C           -2.79752250558483        5.33910061860652       -0.35474482700172
H           -0.26928473655560        3.10691695893204       -0.39315011412863
H           -4.47910715398580        2.41131540029574       -0.28696170970826
H           -0.66956833458514        5.53508608867921       -0.40822850652179
H           -4.87260710202468        4.84057842816008       -0.30938382772272
H           -2.97475727759235        6.40133337124119       -0.36579685081279
C           -3.05487949264523        0.24615740155339       -1.65766263722191
C           -4.19452430972078       -0.53437656825384       -1.53624558337335
C           -2.59168500297522        0.58640601426804       -2.92540259146699
C           -4.86350691566343       -0.95930548490362       -2.66821105667933
C           -3.26586435003887        0.16483661532509       -4.05109759522955
C           -4.40385499387789       -0.61257033373615       -3.92389242985382
H           -4.56557646605579       -0.82915251020927       -0.56831916156944
H           -1.68560673879243        1.17220953211210       -3.00733168520214
H           -5.74211928425902       -1.57496158548298       -2.56673047268893
H           -2.89973417270321        0.42562383633034       -5.02956541129561
H           -4.92422975972656       -0.95733203347619       -4.80139445311675
C            0.18255242960673        1.62724473667126        2.34565529227032
O           -0.08936981634713        0.59508100283707        3.16571102860276
H           -0.50641901127587       -0.28775278680752        2.44579790825299
H           -0.64080589675338        2.36245444423570        2.27162414502558
H            1.09859709098294        2.16027278058643        2.62721486546903
H            0.37887836214684        1.25439683285013        1.25710335147479
70
 energy: -105.683104585040 gnorm: 0.012214301434 xtb: 6.7.0 (08769fc)
P           -2.00191299811398        0.81557614307518       -0.28223415627728
P            1.84567261431400       -1.19866922541362        0.67727151897026
C           -2.86626927664152        0.27661279618972        1.24972893828723
C            1.20028003612797       -2.28234149084739        2.02854477588116
H           -3.95235544865110        0.29064161733702        1.14884636698667
H            1.67442730629054       -3.26406600188139        2.01046547197946
H           -2.57944945510661        0.96521750702265        2.04939693056533
H            1.40734968501271       -1.79378772699154        2.98250040935524
C           -2.31345891816047       -1.11604453959352        1.54311258538527
C           -0.31027079780891       -2.39002478149678        1.83420893643883
H           -2.72723092495707       -1.84384528621285        0.82412551306047
H           -0.54010852857011       -3.14518680107136        1.06515923717639
H           -2.62293786827344       -1.43338582401052        2.55350312295221
H           -0.77133673809809       -2.72929055067469        2.77725097351714
N           -0.85615630607684       -1.09250667563750        1.44493118067164
Mn           0.00867915559448       -0.15291634803971       -0.12525941116866
C           -0.39838065341743       -1.40240984186897       -1.30266337502489
C            0.84629200507530        0.86596121716947       -1.30359134079808
O           -0.73214007491134       -2.22633657250404       -2.04406862984899
O            1.38910213711676        1.49716391463372       -2.10768277363130
C            3.23669310466807       -0.33141161870773        1.47976827263420
C            3.09014931229713        0.22558825731922        2.74732816903516
C            4.41816723990222       -0.11842039107601        0.77444168532540
C            4.11654290106137        0.96406611769018        3.30508089236192
C            5.44413012495756        0.61211897442135        1.34282892489609
C            5.29656905533065        1.15659160042637        2.60749714865000
H            2.17173965860214        0.10214453157766        3.30240136057512
H            4.53054638715615       -0.52630751451575       -0.21981951659234
H            3.99000313529344        1.39697592957146        4.28555304037973
H            6.36019504566026        0.76511588565574        0.79371372505251
H            6.09465805591441        1.73577197940629        3.04480890783098
C            2.76328954590130       -2.33845729156540       -0.41284689897361
C            3.58942049854040       -3.33651323144433        0.09259815012666
C            2.66464254870571       -2.16208520336223       -1.78816044194904
C            4.28096242983838       -4.16397718792317       -0.77178792874386
C            3.36688339239711       -2.98493058456429       -2.64881246601464
C            4.17007926366232       -3.99206383959270       -2.14198823911357
H            3.70341730371011       -3.46132886337963        1.16009608178914
H            2.03240533894542       -1.37076378847334       -2.17325402812377
H            4.91285333884625       -4.94433223782105       -0.37633577253793
H            3.28681385537945       -2.84008108468092       -3.71453494451751
H            4.71474996254802       -4.63848821862689       -2.81194543677655
C           -2.34463387114484        2.60684053857097       -0.32771758349921
C           -1.27661345808086        3.49282367963906       -0.37148728086139
C           -3.64681773500066        3.09350512833641       -0.30854349307597
C           -1.50330257349493        4.85629856534379       -0.38147106845881
C           -3.86867437551781        4.45727417477599       -0.32207573983377
C           -2.80017029461747        5.33931686851315       -0.35530660563571
H           -0.26596681505538        3.10616325583466       -0.39932500198363
H           -4.47989548962476        2.40542749675999       -0.28919677149692
H           -0.66901332081697        5.53946435179284       -0.41041050524492
H           -4.87845696806301        4.83766485436623       -0.30760143087670
H           -2.97943289626270        6.40293542734938       -0.36426987204063
C           -3.05544907239364        0.24530874903059       -1.65574718405549
C           -4.19633144673557       -0.53542098597024       -1.53408652799937
C           -2.58914656541779        0.58683556290650       -2.92369678576449
C           -4.86515699797585       -0.96003517408405       -2.66870067889447
C           -3.26303158549133        0.16604528970170       -4.05171253246034
C           -4.40331813346619       -0.61161267426743       -3.92506131969719
H           -4.56791203751006       -0.83112589733432       -0.56479694647187
H           -1.68116856486511        1.17288834385795       -3.00318478751722
H           -5.74699414695045       -1.57427725566612       -2.56822413840648
H           -2.89656398289192        0.43043979204137       -5.03104522878468
H           -4.92544727577492       -0.95393155941063       -4.80453227024715
C            0.18099731319425        1.62684926324947        2.34763759821986
O           -0.09502516542411        0.59084310548654        3.16539606287346
H           -0.50016764509166       -0.28750227895387        2.44114421956395
H           -0.63938167394651        2.36628809648875        2.27742511548600
H            1.09474806645149        2.16185483184528        2.63755293811303
H            0.38268384190632        1.26602283527756        1.25651922325801
70
 energy: -105.683193200874 gnorm: 0.011224984297 xtb: 6.7.0 (08769fc)
P           -2.00182242188933        0.81239002820054       -0.28255222972606
P            1.84536088805688       -1.20099124771298        0.67883258119546
C           -2.86522206110836        0.27810437055786        1.25164600884318
C            1.19776991060118       -2.28670398306035        2.02815744906081
H           -3.95224455617167        0.29506599808376        1.15289890338494
H            1.67199687737620       -3.26919144096166        2.00752910582079
H           -2.57700730498181        0.96725591211590        2.05107686284450
H            1.40776104986455       -1.80299547510293        2.98452794179535
C           -2.31570846700381       -1.11519484041867        1.54550714723408
C           -0.31291282899140       -2.39268414985394        1.83506151654293
H           -2.73306975176302       -1.84303718131518        0.82869522401674
H           -0.54428785485968       -3.14880580809437        1.06755974659942
H           -2.62307341945192       -1.43129639011967        2.55596416847725
H           -0.77404349006686       -2.73075728012013        2.77720559406328
N           -0.85825020157124       -1.09544236059863        1.44357627108026
Mn           0.01008399883289       -0.15634293702871       -0.12475963806479
C           -0.42496596446090       -1.37357441068834       -1.32878667075570
C            0.86510389096083        0.85967257953868       -1.29572596279620
O           -0.72751256954069       -2.23621184430231       -2.03886129136441
O            1.39190952248918        1.50684563118552       -2.10188103003380
C            3.23431829478623       -0.32725104780041        1.47837858261132
C            3.09139799132942        0.22566689441143        2.74903557462213
C            4.41437546303904       -0.11192211733024        0.76965241261950
C            4.12198881538058        0.95966169899180        3.30731903094506
C            5.44385714683945        0.61473444156323        1.33832756835974
C            5.30075479263177        1.15318497189127        2.60677826949339
H            2.17207789132249        0.10295059161056        3.30457435007591
H            4.52408791476202       -0.51848568408830       -0.22622956392853
H            3.99867005788948        1.38953083847237        4.29072846649355